 running   25 mpi-ranks, on    1 nodes
 distrk:  each k-point on   25 cores,    1 groups
 distr:  one band on    1 cores,   25 groups
 vasp.6.5.1 10Mar25 (build Mar 23 2025 15:35:49) complex                        
  
 MD_VERSION_INFO: Compiled 2025-03-23T14:46:37-UTC in mrdevlin:/home/medea/data/
 build/svnuser/vasp6.5.1/202405112235/x86_64/src/src/build/std from git 20240511
 2235
 POSCAR found type information on POSCAR C O H 
 POSCAR found :  3 types and      13 ions
 scaLAPACK will be used
 -----------------------------------------------------------------------------
|                                                                             |
|           W    W    AA    RRRRR   N    N  II  N    N   GGGG   !!!           |
|           W    W   A  A   R    R  NN   N  II  NN   N  G    G  !!!           |
|           W    W  A    A  R    R  N N  N  II  N N  N  G       !!!           |
|           W WW W  AAAAAA  RRRRR   N  N N  II  N  N N  G  GGG   !            |
|           WW  WW  A    A  R   R   N   NN  II  N   NN  G    G                |
|           W    W  A    A  R    R  N    N  II  N    N   GGGG   !!!           |
|                                                                             |
|     The value NCORE = 8 specified in the INCAR file was overwritten,        |
|     because it was not compatible with the 25 processes available:          |
|     NCORE = 1                                                               |
|     was used instead, please check that this makes sense for your           |
|     machine.                                                                |
|                                                                             |
 -----------------------------------------------------------------------------

 -----------------------------------------------------------------------------
|                                                                             |
|           W    W    AA    RRRRR   N    N  II  N    N   GGGG   !!!           |
|           W    W   A  A   R    R  NN   N  II  NN   N  G    G  !!!           |
|           W    W  A    A  R    R  N N  N  II  N N  N  G       !!!           |
|           W WW W  AAAAAA  RRRRR   N  N N  II  N  N N  G  GGG   !            |
|           WW  WW  A    A  R   R   N   NN  II  N   NN  G    G                |
|           W    W  A    A  R    R  N    N  II  N    N   GGGG   !!!           |
|                                                                             |
|     The value NPAR = 8 specified in the INCAR file was overwritten,         |
|     because it was not compatible with the 25 processes available:          |
|     NPAR = 25                                                               |
|     was used instead, please check that this makes sense for your           |
|     machine.                                                                |
|                                                                             |
 -----------------------------------------------------------------------------

 -----------------------------------------------------------------------------
|                                                                             |
|           W    W    AA    RRRRR   N    N  II  N    N   GGGG   !!!           |
|           W    W   A  A   R    R  NN   N  II  NN   N  G    G  !!!           |
|           W    W  A    A  R    R  N N  N  II  N N  N  G       !!!           |
|           W WW W  AAAAAA  RRRRR   N  N N  II  N  N N  G  GGG   !            |
|           WW  WW  A    A  R   R   N   NN  II  N   NN  G    G                |
|           W    W  A    A  R    R  N    N  II  N    N   GGGG   !!!           |
|                                                                             |
|     For optimal performance we recommend to set                             |
|       NCORE = 2 up to number-of-cores-per-socket                            |
|     NCORE specifies how many cores store one orbital (NPAR=cpu/NCORE).      |
|     This setting can greatly improve the performance of VASP for DFT.       |
|     The default, NCORE=1 might be grossly inefficient on modern             |
|     multi-core architectures or massively parallel machines. Do your        |
|     own testing! More info at https://www.vasp.at/wiki/index.php/NCORE      |
|     Unfortunately you need to use the default for GW and RPA                |
|     calculations (for HF NCORE is supported but not extensively tested      |
|     yet).                                                                   |
|                                                                             |
 -----------------------------------------------------------------------------

 LDA part: xc-table for (Slater+PW92), standard interpolation
 POSCAR, INCAR and KPOINTS ok, starting setup
 FFT: planning ... GRIDC
 FFT: planning ... GRID_SOFT
 FFT: planning ... GRID
 WAVECAR not read
 WARNING: chargedensity file is incomplete
 WARNING: random wavefunctions but no delay for mixing, default for NELMDL
 prediction of wavefunctions initialized - no I/O
 entering main loop
       N       E                     dE             d eps       ncg     rms          rms(c)
DAV:   1     0.153221556176E+03    0.15322E+03   -0.80807E+03   100   0.557E+02 
DAV:   2    -0.609246016454E+02   -0.21415E+03   -0.20899E+03   100   0.142E+02 
DAV:   3    -0.899718564821E+02   -0.29047E+02   -0.29047E+02    50   0.644E+01 
DAV:   4    -0.910963987679E+02   -0.11245E+01   -0.11245E+01   100   0.141E+01 
DAV:   5    -0.910980494544E+02   -0.16507E-02   -0.16507E-02    75   0.478E-01    0.150E+01
RMM:   6    -0.843368618000E+02    0.67612E+01   -0.10097E+01    50   0.150E+01    0.792E+00
RMM:   7    -0.827256177232E+02    0.16112E+01   -0.91159E+00    50   0.131E+01    0.346E+00
RMM:   8    -0.825724765019E+02    0.15314E+00   -0.64696E-01    50   0.428E+00    0.110E+00
RMM:   9    -0.825261657595E+02    0.46311E-01   -0.20262E-01    52   0.210E+00    0.357E-01
RMM:  10    -0.825302749447E+02   -0.41092E-02   -0.55508E-02    53   0.112E+00    0.298E-01
RMM:  11    -0.825261402059E+02    0.41347E-02   -0.97337E-03    50   0.569E-01    0.137E-01
RMM:  12    -0.825313326399E+02   -0.51924E-02   -0.53092E-03    50   0.352E-01    0.867E-02
RMM:  13    -0.825384523575E+02   -0.71197E-02   -0.11878E-02    50   0.391E-01    0.927E-02
RMM:  14    -0.825431289398E+02   -0.46766E-02   -0.17249E-03    50   0.193E-01    0.421E-02
RMM:  15    -0.825485071668E+02   -0.53782E-02   -0.27450E-03    50   0.222E-01    0.461E-02
RMM:  16    -0.825509604325E+02   -0.24533E-02   -0.97957E-04    52   0.112E-01    0.119E-02
RMM:  17    -0.825522772945E+02   -0.13169E-02   -0.27449E-04    46   0.570E-02    0.778E-03
RMM:  18    -0.825529559171E+02   -0.67862E-03   -0.16397E-04    46   0.399E-02    0.417E-03
RMM:  19    -0.825532721729E+02   -0.31626E-03   -0.40338E-05    39   0.201E-02    0.233E-03
RMM:  20    -0.825534455690E+02   -0.17340E-03   -0.10412E-05    32   0.130E-02    0.162E-03
RMM:  21    -0.825535077943E+02   -0.62225E-04   -0.32756E-06    27   0.778E-03    0.105E-03
RMM:  22    -0.825535320556E+02   -0.24261E-04   -0.17199E-06    27   0.570E-03    0.539E-04
RMM:  23    -0.825535426302E+02   -0.10575E-04   -0.57405E-07    21   0.416E-03    0.587E-04
RMM:  24    -0.825535455839E+02   -0.29537E-05   -0.79279E-08    15   0.313E-03 
      1 T=   503. E= -.81773101E+02 F= -.82553485E+02 E0= -.82553485E+02  EK= 0.78038E+00 SP= 0.00E+00 SK= 0.00E+00
 bond charge predicted
       N       E                     dE             d eps       ncg     rms          rms(c)
DAV:   1    -0.825562822401E+02   -0.27396E-02   -0.11755E+00    75   0.716E+00    0.379E-01
RMM:   2    -0.825551319708E+02    0.11503E-02   -0.17260E-02    50   0.879E-01    0.218E-01
RMM:   3    -0.825552033396E+02   -0.71369E-04   -0.57070E-03    50   0.441E-01    0.764E-02
RMM:   4    -0.825551738984E+02    0.29441E-04   -0.65285E-04    51   0.177E-01    0.395E-02
RMM:   5    -0.825551850157E+02   -0.11117E-04   -0.20414E-04    50   0.875E-02    0.144E-02
RMM:   6    -0.825552014619E+02   -0.16446E-04   -0.77578E-05    49   0.449E-02    0.111E-02
RMM:   7    -0.825552165245E+02   -0.15063E-04   -0.18231E-05    32   0.218E-02    0.279E-03
RMM:   8    -0.825552261684E+02   -0.96439E-05   -0.36101E-06    32   0.108E-02 
      2 T=   501. E= -.81777832E+02 F= -.82555158E+02 E0= -.82555158E+02  EK= 0.77720E+00 SP= 0.13E-03 SK= 0.17E-05
Information: wavefunction orthogonal band   24  0.4795
 bond charge predicted
 prediction of wavefunctions
       N       E                     dE             d eps       ncg     rms          rms(c)
DAV:   1    -0.825253490301E+02    0.29867E-01   -0.43619E-02    75   0.167E+00    0.531E-02
RMM:   2    -0.825255106665E+02   -0.16164E-03   -0.18283E-03    50   0.313E-01    0.327E-02
RMM:   3    -0.825255388871E+02   -0.28221E-04   -0.17313E-04    50   0.974E-02    0.179E-02
RMM:   4    -0.825255650475E+02   -0.26160E-04   -0.42847E-05    44   0.443E-02    0.674E-03
RMM:   5    -0.825255814775E+02   -0.16430E-04   -0.97717E-06    32   0.200E-02    0.267E-03
RMM:   6    -0.825255906436E+02   -0.91661E-05   -0.26795E-06    32   0.965E-03 
      3 T=   482. E= -.81777389E+02 F= -.82525510E+02 E0= -.82525510E+02  EK= 0.74779E+00 SP= 0.33E-03 SK= 0.61E-06
 bond charge predicted
 prediction of wavefunctions
       N       E                     dE             d eps       ncg     rms          rms(c)
DAV:   1    -0.824710209855E+02    0.54560E-01   -0.35762E-02    75   0.143E+00    0.213E-02
RMM:   2    -0.824711086697E+02   -0.87684E-04   -0.81145E-04    50   0.198E-01    0.122E-02
RMM:   3    -0.824711238473E+02   -0.15178E-04   -0.73278E-05    46   0.625E-02    0.988E-03
RMM:   4    -0.824711404198E+02   -0.16572E-04   -0.17947E-05    33   0.277E-02    0.381E-03
RMM:   5    -0.824711509604E+02   -0.10541E-04   -0.48815E-06    32   0.130E-02    0.134E-03
RMM:   6    -0.824711590603E+02   -0.80999E-05   -0.18764E-06    32   0.788E-03 
      4 T=   448. E= -.66476959E+02 F= -.67171317E+02 E0= -.67171317E+02  EK= 0.69443E+00 SP= -.10E-03 SK= 0.27E-04
 bond charge predicted
 prediction of wavefunctions
       N       E                     dE             d eps       ncg     rms          rms(c)
DAV:   1    -0.824027661879E+02    0.68385E-01   -0.30812E-02    75   0.137E+00    0.205E-02
RMM:   2    -0.824028437573E+02   -0.77569E-04   -0.69768E-04    50   0.191E-01    0.112E-02
RMM:   3    -0.824028586700E+02   -0.14913E-04   -0.59801E-05    45   0.585E-02    0.946E-03
RMM:   4    -0.824028758823E+02   -0.17212E-04   -0.13038E-05    32   0.240E-02    0.422E-03
RMM:   5    -0.824028920033E+02   -0.16121E-04   -0.41666E-06    32   0.119E-02    0.147E-03
RMM:   6    -0.824029019186E+02   -0.99153E-05   -0.16188E-06    32   0.717E-03 
      5 T=   405. E= -.81775954E+02 F= -.82402792E+02 E0= -.82402792E+02  EK= 0.62895E+00 SP= -.25E-02 SK= 0.36E-03
 bond charge predicted
 prediction of wavefunctions
       N       E                     dE             d eps       ncg     rms          rms(c)
DAV:   1    -0.823333858274E+02    0.69506E-01   -0.27384E-02    75   0.129E+00    0.230E-02
RMM:   2    -0.823334429489E+02   -0.57122E-04   -0.60530E-04    50   0.180E-01    0.114E-02
RMM:   3    -0.823334526065E+02   -0.96576E-05   -0.54914E-05    45   0.560E-02 
      6 T=   364. E= -.81772666E+02 F= -.82330712E+02 E0= -.82330712E+02  EK= 0.56472E+00 SP= -.84E-02 SK= 0.17E-02
 bond charge predicted
 prediction of wavefunctions
       N       E                     dE             d eps       ncg     rms          rms(c)
DAV:   1    -0.822751361042E+02    0.58307E-01   -0.23207E-02    75   0.121E+00    0.319E-02
RMM:   2    -0.822751999489E+02   -0.63845E-04   -0.68396E-04    50   0.195E-01    0.180E-02
RMM:   3    -0.822752236778E+02   -0.23729E-04   -0.84241E-05    48   0.665E-02    0.116E-02
RMM:   4    -0.822752469620E+02   -0.23284E-04   -0.17098E-05    33   0.278E-02    0.397E-03
RMM:   5    -0.822752618683E+02   -0.14906E-04   -0.44883E-06    32   0.133E-02    0.168E-03
RMM:   6    -0.822752736868E+02   -0.11819E-04   -0.23139E-06    32   0.859E-03    0.136E-03
RMM:   7    -0.822752826846E+02   -0.89978E-05   -0.61011E-07    23   0.459E-03 
      7 T=   332. E= -.81774739E+02 F= -.82275161E+02 E0= -.82275161E+02  EK= 0.51476E+00 SP= -.19E-01 SK= 0.51E-02
 bond charge predicted
 prediction of wavefunctions
       N       E                     dE             d eps       ncg     rms          rms(c)
DAV:   1    -0.822385056077E+02    0.36768E-01   -0.20367E-02    75   0.112E+00    0.269E-02
RMM:   2    -0.822385498991E+02   -0.44291E-04   -0.45115E-04    50   0.155E-01    0.124E-02
RMM:   3    -0.822385654610E+02   -0.15562E-04   -0.43779E-05    44   0.496E-02    0.717E-03
RMM:   4    -0.822385803201E+02   -0.14859E-04   -0.74809E-06    32   0.185E-02    0.241E-03
RMM:   5    -0.822385900839E+02   -0.97639E-05   -0.19483E-06    32   0.885E-03 
      8 T=   316. E= -.81774236E+02 F= -.82238230E+02 E0= -.82238230E+02  EK= 0.48950E+00 SP= -.37E-01 SK= 0.11E-01
 bond charge predicted
 prediction of wavefunctions
       N       E                     dE             d eps       ncg     rms          rms(c)
DAV:   1    -0.822273047733E+02    0.11276E-01   -0.19655E-02    75   0.111E+00    0.200E-02
RMM:   2    -0.822273515336E+02   -0.46760E-04   -0.43432E-04    50   0.160E-01    0.139E-02
RMM:   3    -0.822273638363E+02   -0.12303E-04   -0.41730E-05    42   0.492E-02    0.880E-03
RMM:   4    -0.822273781257E+02   -0.14289E-04   -0.10437E-05    32   0.217E-02    0.243E-03
RMM:   5    -0.822273844760E+02   -0.63502E-05   -0.25744E-06    32   0.980E-03 
      9 T=   318. E= -.81774773E+02 F= -.82227258E+02 E0= -.82227258E+02  EK= 0.49330E+00 SP= -.61E-01 SK= 0.20E-01
Information: wavefunction orthogonal band   25  0.8877
 bond charge predicted
 prediction of wavefunctions
       N       E                     dE             d eps       ncg     rms          rms(c)
DAV:   1    -0.822357739385E+02   -0.83958E-02   -0.22016E-02   100   0.116E+00    0.165E-02
RMM:   2    -0.822358079013E+02   -0.33963E-04   -0.32305E-04    50   0.142E-01    0.109E-02
RMM:   3    -0.822358163291E+02   -0.84277E-05   -0.31577E-05    38   0.433E-02 
     10 T=   336. E= -.81775569E+02 F= -.82235613E+02 E0= -.82235613E+02  EK= 0.52119E+00 SP= -.92E-01 SK= 0.31E-01
 bond charge predicted
 prediction of wavefunctions
       N       E                     dE             d eps       ncg     rms          rms(c)
DAV:   1    -0.822488094808E+02   -0.13002E-01   -0.26140E-02    50   0.125E+00    0.173E-02
RMM:   2    -0.822488863010E+02   -0.76820E-04   -0.67178E-04    50   0.199E-01    0.141E-02
RMM:   3    -0.822488996134E+02   -0.13312E-04   -0.70842E-05    45   0.617E-02    0.117E-02
RMM:   4    -0.822489186948E+02   -0.19081E-04   -0.16312E-05    32   0.275E-02    0.415E-03
RMM:   5    -0.822489304397E+02   -0.11745E-04   -0.41523E-06    32   0.123E-02    0.145E-03
RMM:   6    -0.822489361218E+02   -0.56821E-05   -0.13328E-06    29   0.709E-03 
     11 T=   361. E= -.81419527E+02 F= -.81891485E+02 E0= -.81891485E+02  EK= 0.55923E+00 SP= -.13E+00 SK= 0.42E-01
 bond charge predicted
 prediction of wavefunctions
       N       E                     dE             d eps       ncg     rms          rms(c)
DAV:   1    -0.822484249046E+02    0.50554E-03   -0.30778E-02   100   0.133E+00    0.185E-02
RMM:   2    -0.822484756457E+02   -0.50741E-04   -0.48063E-04    50   0.162E-01    0.109E-02
RMM:   3    -0.822484840499E+02   -0.84042E-05   -0.40766E-05    41   0.491E-02 
     12 T=   380. E= -.81777779E+02 F= -.82248245E+02 E0= -.82248245E+02  EK= 0.58962E+00 SP= -.17E+00 SK= 0.53E-01
 bond charge predicted
 prediction of wavefunctions
       N       E                     dE             d eps       ncg     rms          rms(c)
DAV:   1    -0.822204117763E+02    0.28064E-01   -0.32795E-02    75   0.138E+00    0.214E-02
RMM:   2    -0.822205048180E+02   -0.93042E-04   -0.83525E-04    50   0.219E-01    0.167E-02
RMM:   3    -0.822205212734E+02   -0.16455E-04   -0.75930E-05    45   0.677E-02    0.133E-02
RMM:   4    -0.822205447984E+02   -0.23525E-04   -0.17763E-05    33   0.302E-02    0.437E-03
RMM:   5    -0.822205591396E+02   -0.14341E-04   -0.41650E-06    32   0.133E-02    0.111E-03
RMM:   6    -0.822205682838E+02   -0.91443E-05   -0.12529E-06    30   0.706E-03 
     13 T=   385. E= -.81778005E+02 F= -.82219933E+02 E0= -.82219933E+02  EK= 0.59767E+00 SP= -.22E+00 SK= 0.63E-01
 bond charge predicted
 prediction of wavefunctions
       N       E                     dE             d eps       ncg     rms          rms(c)
DAV:   1    -0.821606169287E+02    0.59942E-01   -0.31578E-02   100   0.134E+00    0.169E-02
RMM:   2    -0.821606622244E+02   -0.45296E-04   -0.43755E-04    50   0.150E-01    0.840E-03
RMM:   3    -0.821606694900E+02   -0.72656E-05   -0.37065E-05    42   0.455E-02 
     14 T=   372. E= -.81778385E+02 F= -.82160418E+02 E0= -.82160418E+02  EK= 0.57735E+00 SP= -.27E+00 SK= 0.75E-01
 bond charge predicted
 prediction of wavefunctions
       N       E                     dE             d eps       ncg     rms          rms(c)
DAV:   1    -0.820758768026E+02    0.84785E-01   -0.27504E-02    75   0.129E+00    0.215E-02
RMM:   2    -0.820759586943E+02   -0.81892E-04   -0.77276E-04    50   0.208E-01    0.160E-02
RMM:   3    -0.820759720140E+02   -0.13320E-04   -0.72703E-05    45   0.656E-02    0.120E-02
RMM:   4    -0.820759881146E+02   -0.16101E-04   -0.17943E-05    32   0.294E-02    0.327E-03
RMM:   5    -0.820759956347E+02   -0.75201E-05   -0.42368E-06    32   0.131E-02 
     15 T=   344. E= -.81777557E+02 F= -.82075664E+02 E0= -.82075664E+02  EK= 0.53428E+00 SP= -.33E+00 SK= 0.91E-01
 bond charge predicted
 prediction of wavefunctions
       N       E                     dE             d eps       ncg     rms          rms(c)
DAV:   1    -0.819852773676E+02    0.90711E-01   -0.22513E-02    75   0.121E+00    0.258E-02
RMM:   2    -0.819853535119E+02   -0.76144E-04   -0.79677E-04    50   0.209E-01    0.151E-02
RMM:   3    -0.819853625964E+02   -0.90845E-05   -0.66253E-05    45   0.622E-02 
     16 T=   313. E= -.81417540E+02 F= -.81626438E+02 E0= -.81626438E+02  EK= 0.48619E+00 SP= -.39E+00 SK= 0.11E+00
 bond charge predicted
 prediction of wavefunctions
       N       E                     dE             d eps       ncg     rms          rms(c)
DAV:   1    -0.819153875374E+02    0.69966E-01   -0.15813E-02    75   0.111E+00    0.309E-02
RMM:   2    -0.819154782824E+02   -0.90745E-04   -0.88682E-04    50   0.225E-01    0.206E-02
RMM:   3    -0.819154982490E+02   -0.19967E-04   -0.82329E-05    48   0.688E-02    0.136E-02
RMM:   4    -0.819155229555E+02   -0.24707E-04   -0.20915E-05    33   0.315E-02    0.306E-03
RMM:   5    -0.819155315200E+02   -0.85645E-05   -0.43165E-06    32   0.133E-02 
     17 T=   297. E= -.81774318E+02 F= -.81915151E+02 E0= -.81915151E+02  EK= 0.46009E+00 SP= -.46E+00 SK= 0.14E+00
 bond charge predicted
 prediction of wavefunctions
       N       E                     dE             d eps       ncg     rms          rms(c)
DAV:   1    -0.818922403379E+02    0.23283E-01   -0.12007E-02    75   0.981E-01    0.215E-02
RMM:   2    -0.818922905511E+02   -0.50213E-04   -0.47686E-04    50   0.154E-01    0.112E-02
RMM:   3    -0.818923006955E+02   -0.10144E-04   -0.38938E-05    41   0.451E-02    0.612E-03
RMM:   4    -0.818923128705E+02   -0.12175E-04   -0.10894E-05    32   0.201E-02    0.187E-03
RMM:   5    -0.818923190509E+02   -0.61804E-05   -0.23153E-06    32   0.933E-03 
     18 T=   312. E= -.81772323E+02 F= -.81891307E+02 E0= -.81891307E+02  EK= 0.48427E+00 SP= -.53E+00 SK= 0.17E+00
 bond charge predicted
 prediction of wavefunctions
       N       E                     dE             d eps       ncg     rms          rms(c)
DAV:   1    -0.819279313233E+02   -0.35618E-01   -0.12634E-02   100   0.981E-01    0.134E-02
RMM:   2    -0.819279684946E+02   -0.37171E-04   -0.33046E-04    50   0.142E-01    0.964E-03
RMM:   3    -0.819279750731E+02   -0.65785E-05   -0.25977E-05    35   0.401E-02 
     19 T=   372. E= -.81772745E+02 F= -.81927522E+02 E0= -.81927522E+02  EK= 0.57640E+00 SP= -.62E+00 SK= 0.20E+00
 bond charge predicted
 prediction of wavefunctions
       N       E                     dE             d eps       ncg     rms          rms(c)
DAV:   1    -0.820115316896E+02   -0.83563E-01   -0.19381E-02    75   0.114E+00    0.115E-02
RMM:   2    -0.820115854905E+02   -0.53801E-04   -0.45187E-04    50   0.171E-01    0.885E-03
RMM:   3    -0.820115950001E+02   -0.95096E-05   -0.39385E-05    43   0.492E-02 
     20 T=   472. E= -.81643414E+02 F= -.81880296E+02 E0= -.81880296E+02  EK= 0.73251E+00 SP= -.71E+00 SK= 0.21E+00
 bond charge predicted
 prediction of wavefunctions
       N       E                     dE             d eps       ncg     rms          rms(c)
DAV:   1    -0.821099354354E+02   -0.98350E-01   -0.31606E-02   100   0.139E+00    0.184E-02
RMM:   2    -0.821100053044E+02   -0.69869E-04   -0.63739E-04    50   0.208E-01    0.144E-02
RMM:   3    -0.821100171702E+02   -0.11866E-04   -0.56450E-05    46   0.589E-02    0.119E-02
RMM:   4    -0.821100351044E+02   -0.17934E-04   -0.13649E-05    32   0.257E-02    0.355E-03
RMM:   5    -0.821100442331E+02   -0.91288E-05   -0.31666E-06    32   0.108E-02 
     21 T=   595. E= -.81777248E+02 F= -.82109526E+02 E0= -.82109526E+02  EK= 0.92352E+00 SP= -.80E+00 SK= 0.20E+00
 bond charge predicted
 prediction of wavefunctions
       N       E                     dE             d eps       ncg     rms          rms(c)
DAV:   1    -0.821793341502E+02   -0.69299E-01   -0.45276E-02    75   0.163E+00    0.231E-02
RMM:   2    -0.821794338988E+02   -0.99749E-04   -0.10031E-03    50   0.242E-01    0.131E-02
RMM:   3    -0.821794458435E+02   -0.11945E-04   -0.88680E-05    49   0.691E-02    0.110E-02
RMM:   4    -0.821794550280E+02   -0.91845E-05   -0.22779E-05    35   0.296E-02 
     22 T=   711. E= -.81751878E+02 F= -.82149924E+02 E0= -.82149924E+02  EK= 0.11023E+01 SP= -.88E+00 SK= 0.18E+00
Information: wavefunction orthogonal band   25  0.8992
 bond charge predicted
 prediction of wavefunctions
       N       E                     dE             d eps       ncg     rms          rms(c)
DAV:   1    -0.821816601266E+02   -0.22143E-02   -0.54739E-02    75   0.181E+00    0.268E-02
RMM:   2    -0.821818082340E+02   -0.14811E-03   -0.14815E-03    50   0.303E-01    0.183E-02
RMM:   3    -0.821818275280E+02   -0.19294E-04   -0.12819E-04    50   0.874E-02    0.157E-02
RMM:   4    -0.821818481681E+02   -0.20640E-04   -0.29345E-05    37   0.384E-02    0.592E-03
RMM:   5    -0.821818617196E+02   -0.13552E-04   -0.76179E-06    32   0.181E-02    0.169E-03
RMM:   6    -0.821818678062E+02   -0.60865E-05   -0.23283E-06    32   0.932E-03 
     23 T=   786. E= -.81783713E+02 F= -.82181312E+02 E0= -.82181312E+02  EK= 0.12197E+01 SP= -.96E+00 SK= 0.14E+00
 bond charge predicted
 prediction of wavefunctions
       N       E                     dE             d eps       ncg     rms          rms(c)
DAV:   1    -0.820990730463E+02    0.82789E-01   -0.57396E-02   100   0.189E+00    0.247E-02
RMM:   2    -0.820992172296E+02   -0.14418E-03   -0.14696E-03    50   0.295E-01    0.160E-02
RMM:   3    -0.820992297893E+02   -0.12560E-04   -0.11049E-04    49   0.834E-02    0.132E-02
RMM:   4    -0.820992387939E+02   -0.90046E-05   -0.25663E-05    35   0.367E-02 
     24 T=   802. E= -.81784550E+02 F= -.82098636E+02 E0= -.82098636E+02  EK= 0.12436E+01 SP= -.10E+01 SK= 0.95E-01
 bond charge predicted
 prediction of wavefunctions
       N       E                     dE             d eps       ncg     rms          rms(c)
DAV:   1    -0.819406802006E+02    0.15855E+00   -0.50263E-02    75   0.184E+00    0.276E-02
RMM:   2    -0.819408455893E+02   -0.16539E-03   -0.17581E-03    50   0.319E-01    0.175E-02
RMM:   3    -0.819408615247E+02   -0.15935E-04   -0.14392E-04    50   0.942E-02    0.145E-02
RMM:   4    -0.819408688920E+02   -0.73673E-05   -0.32723E-05    38   0.404E-02 
     25 T=   757. E= -.81783036E+02 F= -.81940245E+02 E0= -.81940245E+02  EK= 0.11735E+01 SP= -.11E+01 SK= 0.63E-01
 bond charge predicted
 prediction of wavefunctions
       N       E                     dE             d eps       ncg     rms          rms(c)
DAV:   1    -0.817423522242E+02    0.19851E+00   -0.41927E-02    75   0.180E+00    0.380E-02
RMM:   2    -0.817424886534E+02   -0.13643E-03   -0.15092E-03    50   0.296E-01    0.182E-02
RMM:   3    -0.817425107158E+02   -0.22062E-04   -0.14489E-04    50   0.941E-02    0.110E-02
RMM:   4    -0.817425233174E+02   -0.12602E-04   -0.34002E-05    37   0.402E-02    0.543E-03
RMM:   5    -0.817425326023E+02   -0.92849E-05   -0.73778E-06    32   0.174E-02 
     26 T=   672. E= -.81779930E+02 F= -.81741884E+02 E0= -.81741884E+02  EK= 0.10429E+01 SP= -.11E+01 SK= 0.43E-01
 bond charge predicted
 prediction of wavefunctions
       N       E                     dE             d eps       ncg     rms          rms(c)
DAV:   1    -0.815544062696E+02    0.18812E+00   -0.31363E-02    50   0.170E+00    0.352E-02
RMM:   2    -0.815545349134E+02   -0.12864E-03   -0.13836E-03    50   0.273E-01    0.190E-02
RMM:   3    -0.815545566012E+02   -0.21688E-04   -0.15358E-04    50   0.892E-02    0.116E-02
RMM:   4    -0.815545699418E+02   -0.13341E-04   -0.40162E-05    42   0.404E-02    0.409E-03
RMM:   5    -0.815545754934E+02   -0.55516E-05   -0.77077E-06    32   0.178E-02 
     27 T=   584. E= -.81776905E+02 F= -.81553891E+02 E0= -.81553891E+02  EK= 0.90571E+00 SP= -.12E+01 SK= 0.33E-01
 bond charge predicted
 prediction of wavefunctions
       N       E                     dE             d eps       ncg     rms          rms(c)
DAV:   1    -0.814206187041E+02    0.13395E+00   -0.20479E-02    75   0.153E+00    0.257E-02
RMM:   2    -0.814206882429E+02   -0.69539E-04   -0.69729E-04    50   0.195E-01    0.147E-02
RMM:   3    -0.814207042136E+02   -0.15971E-04   -0.68618E-05    49   0.589E-02    0.919E-03
RMM:   4    -0.814207195469E+02   -0.15333E-04   -0.16059E-05    32   0.258E-02    0.304E-03
RMM:   5    -0.814207276198E+02   -0.80728E-05   -0.38612E-06    32   0.118E-02 
     28 T=   523. E= -.81775470E+02 F= -.81420003E+02 E0= -.81420003E+02  EK= 0.81119E+00 SP= -.12E+01 SK= 0.29E-01
 bond charge predicted
 prediction of wavefunctions
       N       E                     dE             d eps       ncg     rms          rms(c)
DAV:   1    -0.813589112472E+02    0.61808E-01   -0.17179E-02    75   0.144E+00    0.168E-02
RMM:   2    -0.813589697165E+02   -0.58469E-04   -0.49991E-04    50   0.168E-01    0.103E-02
RMM:   3    -0.813589829433E+02   -0.13227E-04   -0.49574E-05    45   0.500E-02    0.841E-03
RMM:   4    -0.813590015649E+02   -0.18622E-04   -0.11106E-05    32   0.207E-02    0.278E-03
RMM:   5    -0.813590115966E+02   -0.10032E-04   -0.28483E-06    32   0.100E-02    0.138E-03
RMM:   6    -0.813590190342E+02   -0.74376E-05   -0.12505E-06    30   0.639E-03 
     29 T=   505. E= -.81775998E+02 F= -.81358261E+02 E0= -.81358261E+02  EK= 0.78286E+00 SP= -.12E+01 SK= 0.29E-01
 bond charge predicted
 prediction of wavefunctions
       N       E                     dE             d eps       ncg     rms          rms(c)
DAV:   1    -0.813581796540E+02    0.83194E-03   -0.22458E-02   100   0.148E+00    0.222E-02
RMM:   2    -0.813582305398E+02   -0.50886E-04   -0.53066E-04    50   0.178E-01    0.128E-02
RMM:   3    -0.813582388241E+02   -0.82844E-05   -0.41785E-05    43   0.494E-02 
     30 T=   525. E= -.81777623E+02 F= -.81357453E+02 E0= -.81357453E+02  EK= 0.81413E+00 SP= -.13E+01 SK= 0.28E-01
 bond charge predicted
 prediction of wavefunctions
       N       E                     dE             d eps       ncg     rms          rms(c)
DAV:   1    -0.813910447000E+02   -0.32814E-01   -0.33832E-02   100   0.158E+00    0.377E-02
RMM:   2    -0.813911219130E+02   -0.77213E-04   -0.95060E-04    50   0.237E-01    0.210E-02
RMM:   3    -0.813911391931E+02   -0.17280E-04   -0.97044E-05    50   0.730E-02    0.138E-02
RMM:   4    -0.813911547561E+02   -0.15563E-04   -0.19053E-05    33   0.301E-02    0.437E-03
RMM:   5    -0.813911625060E+02   -0.77499E-05   -0.45847E-06    32   0.139E-02 
     31 T=   567. E= -.81779344E+02 F= -.81390343E+02 E0= -.81390343E+02  EK= 0.87998E+00 SP= -.13E+01 SK= 0.25E-01
 bond charge predicted
 prediction of wavefunctions
       N       E                     dE             d eps       ncg     rms          rms(c)
DAV:   1    -0.814308117488E+02   -0.39657E-01   -0.47222E-02   100   0.167E+00    0.317E-02
RMM:   2    -0.814309048694E+02   -0.93121E-04   -0.10363E-03    50   0.237E-01    0.169E-02
RMM:   3    -0.814309144328E+02   -0.95634E-05   -0.80677E-05    50   0.676E-02 
     32 T=   614. E= -.81780641E+02 F= -.81430052E+02 E0= -.81430052E+02  EK= 0.95279E+00 SP= -.13E+01 SK= 0.19E-01
Information: wavefunction orthogonal band   25  0.8822
 bond charge predicted
 prediction of wavefunctions
       N       E                     dE             d eps       ncg     rms          rms(c)
DAV:   1    -0.814589000115E+02   -0.27995E-01   -0.58604E-02   100   0.170E+00    0.397E-02
RMM:   2    -0.814590052018E+02   -0.10519E-03   -0.12741E-03    50   0.272E-01    0.227E-02
RMM:   3    -0.814590239224E+02   -0.18721E-04   -0.13471E-04    50   0.861E-02    0.156E-02
RMM:   4    -0.814590361735E+02   -0.12251E-04   -0.25062E-05    34   0.341E-02    0.558E-03
RMM:   5    -0.814590434013E+02   -0.72278E-05   -0.62320E-06    32   0.159E-02 
     33 T=   652. E= -.81781571E+02 F= -.81458135E+02 E0= -.81458135E+02  EK= 0.10111E+01 SP= -.13E+01 SK= 0.12E-01
 bond charge predicted
 prediction of wavefunctions
       N       E                     dE             d eps       ncg     rms          rms(c)
DAV:   1    -0.814643537103E+02   -0.53175E-02   -0.65426E-02   100   0.168E+00    0.231E-02
RMM:   2    -0.814644496105E+02   -0.95900E-04   -0.93612E-04    50   0.218E-01    0.121E-02
RMM:   3    -0.814644608032E+02   -0.11193E-04   -0.72347E-05    49   0.638E-02    0.821E-03
RMM:   4    -0.814644706254E+02   -0.98222E-05   -0.20246E-05    34   0.284E-02 
     34 T=   671. E= -.81782250E+02 F= -.81463520E+02 E0= -.81463520E+02  EK= 0.10404E+01 SP= -.14E+01 SK= 0.59E-02
 bond charge predicted
 prediction of wavefunctions
       N       E                     dE             d eps       ncg     rms          rms(c)
DAV:   1    -0.814402586618E+02    0.24202E-01   -0.63360E-02    75   0.161E+00    0.258E-02
RMM:   2    -0.814403718835E+02   -0.11322E-03   -0.11277E-03    50   0.248E-01    0.146E-02
RMM:   3    -0.814403908958E+02   -0.19012E-04   -0.11563E-04    50   0.792E-02    0.126E-02
RMM:   4    -0.814404037651E+02   -0.12869E-04   -0.27152E-05    36   0.330E-02    0.767E-03
RMM:   5    -0.814404215604E+02   -0.17795E-04   -0.74047E-06    32   0.166E-02    0.242E-03
RMM:   6    -0.814404262529E+02   -0.46925E-05   -0.22287E-06    32   0.918E-03 
     35 T=   665. E= -.81782620E+02 F= -.81439447E+02 E0= -.81439447E+02  EK= 0.10318E+01 SP= -.14E+01 SK= 0.18E-02
 bond charge predicted
 prediction of wavefunctions
       N       E                     dE             d eps       ncg     rms          rms(c)
DAV:   1    -0.813850240768E+02    0.55397E-01   -0.57126E-02   100   0.154E+00    0.222E-02
RMM:   2    -0.813851089854E+02   -0.84909E-04   -0.83687E-04    50   0.211E-01    0.119E-02
RMM:   3    -0.813851193426E+02   -0.10357E-04   -0.74564E-05    48   0.653E-02    0.887E-03
RMM:   4    -0.813851260872E+02   -0.67446E-05   -0.18149E-05    33   0.275E-02 
     36 T=   634. E= -.81782238E+02 F= -.81384128E+02 E0= -.81384128E+02  EK= 0.98367E+00 SP= -.14E+01 SK= 0.12E-03
 bond charge predicted
 prediction of wavefunctions
       N       E                     dE             d eps       ncg     rms          rms(c)
DAV:   1    -0.813077991809E+02    0.77320E-01   -0.47907E-02   100   0.147E+00    0.307E-02
RMM:   2    -0.813078942208E+02   -0.95040E-04   -0.10164E-03    50   0.236E-01    0.176E-02
RMM:   3    -0.813079077347E+02   -0.13514E-04   -0.92519E-05    49   0.727E-02    0.118E-02
RMM:   4    -0.813079191128E+02   -0.11378E-04   -0.26005E-05    35   0.344E-02    0.438E-03
RMM:   5    -0.813079244753E+02   -0.53625E-05   -0.52343E-06    32   0.147E-02 
     37 T=   585. E= -.81780615E+02 F= -.81306910E+02 E0= -.81306910E+02  EK= 0.90793E+00 SP= -.14E+01 SK= 0.15E-03
 bond charge predicted
 prediction of wavefunctions
       N       E                     dE             d eps       ncg     rms          rms(c)
DAV:   1    -0.812358897395E+02    0.72029E-01   -0.41240E-02    75   0.144E+00    0.378E-02
RMM:   2    -0.812360060967E+02   -0.11636E-03   -0.13112E-03    50   0.264E-01    0.231E-02
RMM:   3    -0.812360201705E+02   -0.14074E-04   -0.12830E-04    49   0.861E-02    0.134E-02
RMM:   4    -0.812360298881E+02   -0.97176E-05   -0.37690E-05    40   0.413E-02 
     38 T=   538. E= -.81777944E+02 F= -.81234995E+02 E0= -.81234995E+02  EK= 0.83460E+00 SP= -.14E+01 SK= 0.62E-03
 bond charge predicted
 prediction of wavefunctions
       N       E                     dE             d eps       ncg     rms          rms(c)
DAV:   1    -0.812113409275E+02    0.24679E-01   -0.36468E-02   100   0.144E+00    0.440E-02
RMM:   2    -0.812114272656E+02   -0.86338E-04   -0.10962E-03    50   0.251E-01    0.269E-02
RMM:   3    -0.812114453950E+02   -0.18129E-04   -0.11157E-04    49   0.799E-02    0.122E-02
RMM:   4    -0.812114562635E+02   -0.10868E-04   -0.27878E-05    36   0.367E-02    0.437E-03
RMM:   5    -0.812114610270E+02   -0.47635E-05   -0.54585E-06    32   0.157E-02 
     39 T=   520. E= -.81775532E+02 F= -.81210407E+02 E0= -.81210407E+02  EK= 0.80676E+00 SP= -.14E+01 SK= 0.91E-03
 bond charge predicted
 prediction of wavefunctions
       N       E                     dE             d eps       ncg     rms          rms(c)
DAV:   1    -0.812711151221E+02   -0.59659E-01   -0.34053E-02   100   0.144E+00    0.366E-02
RMM:   2    -0.812711950318E+02   -0.79910E-04   -0.93811E-04    50   0.230E-01    0.213E-02
RMM:   3    -0.812712109688E+02   -0.15937E-04   -0.92788E-05    49   0.720E-02    0.962E-03
RMM:   4    -0.812712216445E+02   -0.10676E-04   -0.23770E-05    34   0.323E-02    0.323E-03
RMM:   5    -0.812712263201E+02   -0.46757E-05   -0.44122E-06    32   0.131E-02 
     40 T=   554. E= -.81775220E+02 F= -.81270163E+02 E0= -.81270163E+02  EK= 0.85991E+00 SP= -.14E+01 SK= 0.13E-02
 bond charge predicted
 prediction of wavefunctions
       N       E                     dE             d eps       ncg     rms          rms(c)
DAV:   1    -0.814198751139E+02   -0.14865E+00   -0.33952E-02    75   0.153E+00    0.228E-02
RMM:   2    -0.814199681753E+02   -0.93061E-04   -0.95405E-04    50   0.239E-01    0.149E-02
RMM:   3    -0.814199819282E+02   -0.13753E-04   -0.87094E-05    47   0.675E-02    0.101E-02
RMM:   4    -0.814199944301E+02   -0.12502E-04   -0.22887E-05    35   0.308E-02    0.333E-03
RMM:   5    -0.814199993935E+02   -0.49634E-05   -0.46164E-06    32   0.129E-02 
     41 T=   642. E= -.81777958E+02 F= -.81418941E+02 E0= -.81418941E+02  EK= 0.99528E+00 SP= -.14E+01 SK= 0.30E-02
 bond charge predicted
 prediction of wavefunctions
       N       E                     dE             d eps       ncg     rms          rms(c)
DAV:   1    -0.816183354813E+02   -0.19834E+00   -0.39580E-02   100   0.172E+00    0.209E-02
RMM:   2    -0.816184239919E+02   -0.88511E-04   -0.88409E-04    50   0.236E-01    0.137E-02
RMM:   3    -0.816184324996E+02   -0.85078E-05   -0.67855E-05    47   0.623E-02 
     42 T=   753. E= -.81782431E+02 F= -.81617389E+02 E0= -.81617389E+02  EK= 0.11686E+01 SP= -.13E+01 SK= 0.90E-02
 bond charge predicted
 prediction of wavefunctions
       N       E                     dE             d eps       ncg     rms          rms(c)
DAV:   1    -0.818019901449E+02   -0.18357E+00   -0.46698E-02   100   0.193E+00    0.370E-02
RMM:   2    -0.818021347807E+02   -0.14464E-03   -0.15314E-03    50   0.306E-01    0.244E-02
RMM:   3    -0.818021518710E+02   -0.17090E-04   -0.13861E-04    50   0.874E-02    0.198E-02
RMM:   4    -0.818021677486E+02   -0.15878E-04   -0.29364E-05    39   0.365E-02    0.868E-03
RMM:   5    -0.818021755884E+02   -0.78398E-05   -0.75893E-06    32   0.183E-02 
     43 T=   844. E= -.81785926E+02 F= -.81801147E+02 E0= -.81801147E+02  EK= 0.13089E+01 SP= -.13E+01 SK= 0.24E-01
 bond charge predicted
 prediction of wavefunctions
       N       E                     dE             d eps       ncg     rms          rms(c)
DAV:   1    -0.819169022802E+02   -0.11473E+00   -0.50769E-02   100   0.200E+00    0.382E-02
RMM:   2    -0.819170579773E+02   -0.15570E-03   -0.16286E-03    50   0.305E-01    0.203E-02
RMM:   3    -0.819170694151E+02   -0.11438E-04   -0.11531E-04    50   0.809E-02    0.159E-02
RMM:   4    -0.819170780189E+02   -0.86038E-05   -0.26909E-05    36   0.335E-02 
     44 T=   875. E= -.81786257E+02 F= -.81916067E+02 E0= -.81916067E+02  EK= 0.13570E+01 SP= -.13E+01 SK= 0.53E-01
 bond charge predicted
 prediction of wavefunctions
       N       E                     dE             d eps       ncg     rms          rms(c)
DAV:   1    -0.819438938359E+02   -0.26824E-01   -0.50037E-02   100   0.196E+00    0.506E-02
RMM:   2    -0.819440587860E+02   -0.16495E-03   -0.20415E-03    50   0.343E-01    0.276E-02
RMM:   3    -0.819440759075E+02   -0.17121E-04   -0.16347E-04    50   0.947E-02    0.203E-02
RMM:   4    -0.819440877216E+02   -0.11814E-04   -0.33747E-05    37   0.378E-02    0.815E-03
RMM:   5    -0.819440928888E+02   -0.51672E-05   -0.72760E-06    32   0.175E-02 
     45 T=   835. E= -.81783625E+02 F= -.81943103E+02 E0= -.81943103E+02  EK= 0.12955E+01 SP= -.12E+01 SK= 0.92E-01
 bond charge predicted
 prediction of wavefunctions
       N       E                     dE             d eps       ncg     rms          rms(c)
DAV:   1    -0.818992081232E+02    0.44880E-01   -0.42848E-02   100   0.176E+00    0.386E-02
RMM:   2    -0.818993357547E+02   -0.12763E-03   -0.14281E-03    50   0.278E-01    0.207E-02
RMM:   3    -0.818993455423E+02   -0.97876E-05   -0.10719E-04    50   0.790E-02    0.156E-02
RMM:   4    -0.818993511625E+02   -0.56201E-05   -0.24831E-05    35   0.328E-02 
     46 T=   742. E= -.81779852E+02 F= -.81898388E+02 E0= -.81898388E+02  EK= 0.11503E+01 SP= -.12E+01 SK= 0.13E+00
 bond charge predicted
 prediction of wavefunctions
       N       E                     dE             d eps       ncg     rms          rms(c)
DAV:   1    -0.818177272290E+02    0.81618E-01   -0.37541E-02    75   0.162E+00    0.327E-02
RMM:   2    -0.818178399049E+02   -0.11268E-03   -0.12176E-03    50   0.253E-01    0.186E-02
RMM:   3    -0.818178537951E+02   -0.13890E-04   -0.11706E-04    49   0.789E-02    0.140E-02
RMM:   4    -0.818178652935E+02   -0.11498E-04   -0.32999E-05    37   0.359E-02    0.439E-03
RMM:   5    -0.818178691882E+02   -0.38947E-05   -0.59493E-06    32   0.148E-02 
     47 T=   625. E= -.81776758E+02 F= -.81816937E+02 E0= -.81816937E+02  EK= 0.96934E+00 SP= -.11E+01 SK= 0.16E+00
 bond charge predicted
 prediction of wavefunctions
       N       E                     dE             d eps       ncg     rms          rms(c)
DAV:   1    -0.817351088953E+02    0.82756E-01   -0.31380E-02    75   0.148E+00    0.391E-02
RMM:   2    -0.817351963733E+02   -0.87478E-04   -0.10830E-03    50   0.240E-01    0.191E-02
RMM:   3    -0.817352117203E+02   -0.15347E-04   -0.12433E-04    50   0.792E-02    0.127E-02
RMM:   4    -0.817352188592E+02   -0.71389E-05   -0.24913E-05    33   0.317E-02 
     48 T=   514. E= -.81775135E+02 F= -.81734316E+02 E0= -.81734316E+02  EK= 0.79778E+00 SP= -.10E+01 SK= 0.17E+00
 bond charge predicted
 prediction of wavefunctions
       N       E                     dE             d eps       ncg     rms          rms(c)
DAV:   1    -0.816762332105E+02    0.58979E-01   -0.25523E-02   100   0.132E+00    0.342E-02
RMM:   2    -0.816762865230E+02   -0.53312E-04   -0.72057E-04    50   0.202E-01    0.173E-02
RMM:   3    -0.816762983492E+02   -0.11826E-04   -0.89682E-05    49   0.665E-02    0.106E-02
RMM:   4    -0.816763037825E+02   -0.54333E-05   -0.15284E-05    32   0.257E-02 
     49 T=   428. E= -.81774861E+02 F= -.81675424E+02 E0= -.81675424E+02  EK= 0.66395E+00 SP= -.93E+00 SK= 0.17E+00
 bond charge predicted
 prediction of wavefunctions
       N       E                     dE             d eps       ncg     rms          rms(c)
DAV:   1    -0.816520135772E+02    0.24285E-01   -0.21719E-02   100   0.120E+00    0.267E-02
RMM:   2    -0.816520554087E+02   -0.41831E-04   -0.52478E-04    50   0.174E-01    0.133E-02
RMM:   3    -0.816520642641E+02   -0.88554E-05   -0.66301E-05    46   0.589E-02 
     50 T=   372. E= -.81775399E+02 F= -.81651199E+02 E0= -.81651199E+02  EK= 0.57746E+00 SP= -.85E+00 SK= 0.15E+00
 bond charge predicted
 prediction of wavefunctions
       N       E                     dE             d eps       ncg     rms          rms(c)
DAV:   1    -0.816616328983E+02   -0.95775E-02   -0.19980E-02    75   0.115E+00    0.256E-02
RMM:   2    -0.816616989117E+02   -0.66013E-04   -0.67869E-04    50   0.193E-01    0.181E-02
RMM:   3    -0.816617078755E+02   -0.89637E-05   -0.72611E-05    46   0.638E-02 
     51 T=   344. E= -.81776228E+02 F= -.81660854E+02 E0= -.81660854E+02  EK= 0.53427E+00 SP= -.78E+00 SK= 0.13E+00
 bond charge predicted
 prediction of wavefunctions
       N       E                     dE             d eps       ncg     rms          rms(c)
DAV:   1    -0.816974562802E+02   -0.35757E-01   -0.19645E-02   100   0.115E+00    0.251E-02
RMM:   2    -0.816975027811E+02   -0.46501E-04   -0.54475E-04    50   0.179E-01    0.145E-02
RMM:   3    -0.816975117287E+02   -0.89476E-05   -0.63796E-05    47   0.598E-02 
     52 T=   338. E= -.81777026E+02 F= -.81696671E+02 E0= -.81696671E+02  EK= 0.52355E+00 SP= -.71E+00 SK= 0.11E+00
Information: wavefunction orthogonal band   25  0.5872
 bond charge predicted
 prediction of wavefunctions
       N       E                     dE             d eps       ncg     rms          rms(c)
DAV:   1    -0.817492223028E+02   -0.51720E-01   -0.20614E-02   100   0.115E+00    0.218E-02
RMM:   2    -0.817492770875E+02   -0.54785E-04   -0.53392E-04    50   0.171E-01    0.149E-02
RMM:   3    -0.817492860230E+02   -0.89354E-05   -0.48054E-05    44   0.529E-02 
     53 T=   344. E= -.81777688E+02 F= -.81748463E+02 E0= -.81748463E+02  EK= 0.53298E+00 SP= -.65E+00 SK= 0.88E-01
 bond charge predicted
 prediction of wavefunctions
       N       E                     dE             d eps       ncg     rms          rms(c)
DAV:   1    -0.818065283088E+02   -0.57251E-01   -0.20553E-02    75   0.117E+00    0.201E-02
RMM:   2    -0.818065852592E+02   -0.56950E-04   -0.55863E-04    50   0.172E-01    0.990E-03
RMM:   3    -0.818065949975E+02   -0.97383E-05   -0.58548E-05    46   0.560E-02 
     54 T=   355. E= -.81778298E+02 F= -.81805797E+02 E0= -.81805797E+02  EK= 0.55090E+00 SP= -.59E+00 SK= 0.72E-01
 bond charge predicted
 prediction of wavefunctions
       N       E                     dE             d eps       ncg     rms          rms(c)
DAV:   1    -0.818588513748E+02   -0.52266E-01   -0.20596E-02    75   0.119E+00    0.184E-02
RMM:   2    -0.818589074019E+02   -0.56027E-04   -0.53428E-04    50   0.166E-01    0.146E-02
RMM:   3    -0.818589139792E+02   -0.65773E-05   -0.48371E-05    45   0.515E-02 
     55 T=   365. E= -.81778869E+02 F= -.81858144E+02 E0= -.81858144E+02  EK= 0.56651E+00 SP= -.55E+00 SK= 0.58E-01
 bond charge predicted
 prediction of wavefunctions
       N       E                     dE             d eps       ncg     rms          rms(c)
DAV:   1    -0.818958898047E+02   -0.36982E-01   -0.20303E-02    75   0.119E+00    0.182E-02
RMM:   2    -0.818959425138E+02   -0.52709E-04   -0.50120E-04    50   0.165E-01    0.987E-03
RMM:   3    -0.818959504662E+02   -0.79524E-05   -0.50471E-05    46   0.517E-02 
     56 T=   367. E= -.81779309E+02 F= -.81895207E+02 E0= -.81895207E+02  EK= 0.57001E+00 SP= -.50E+00 SK= 0.46E-01
 bond charge predicted
 prediction of wavefunctions
       N       E                     dE             d eps       ncg     rms          rms(c)
DAV:   1    -0.819094887132E+02   -0.13546E-01   -0.19734E-02    50   0.120E+00    0.175E-02
RMM:   2    -0.819095555410E+02   -0.66828E-04   -0.64052E-04    50   0.181E-01    0.110E-02
RMM:   3    -0.819095644448E+02   -0.89038E-05   -0.69706E-05    45   0.564E-02 
     57 T=   357. E= -.81779412E+02 F= -.81908842E+02 E0= -.81908842E+02  EK= 0.55440E+00 SP= -.46E+00 SK= 0.36E-01
 bond charge predicted
 prediction of wavefunctions
       N       E                     dE             d eps       ncg     rms          rms(c)
DAV:   1    -0.818975619447E+02    0.11994E-01   -0.18628E-02   100   0.118E+00    0.193E-02
RMM:   2    -0.818976155864E+02   -0.53642E-04   -0.50586E-04    50   0.167E-01    0.172E-02
RMM:   3    -0.818976220619E+02   -0.64754E-05   -0.44697E-05    45   0.509E-02 
     58 T=   335. E= -.81778935E+02 F= -.81896915E+02 E0= -.81896915E+02  EK= 0.51891E+00 SP= -.43E+00 SK= 0.26E-01
 bond charge predicted
 prediction of wavefunctions
       N       E                     dE             d eps       ncg     rms          rms(c)
DAV:   1    -0.818680042817E+02    0.29611E-01   -0.16445E-02   100   0.112E+00    0.290E-02
RMM:   2    -0.818680620974E+02   -0.57816E-04   -0.62066E-04    50   0.190E-01    0.153E-02
RMM:   3    -0.818680722316E+02   -0.10134E-04   -0.57061E-05    48   0.577E-02    0.109E-02
RMM:   4    -0.818680826013E+02   -0.10370E-04   -0.15685E-05    32   0.267E-02    0.488E-03
RMM:   5    -0.818680896234E+02   -0.70221E-05   -0.36819E-06    32   0.117E-02 
     59 T=   305. E= -.81777862E+02 F= -.81867397E+02 E0= -.81867397E+02  EK= 0.47239E+00 SP= -.40E+00 SK= 0.16E-01
 bond charge predicted
 prediction of wavefunctions
       N       E                     dE             d eps       ncg     rms          rms(c)
DAV:   1    -0.818396359166E+02    0.28447E-01   -0.13894E-02    75   0.103E+00    0.263E-02
RMM:   2    -0.818397056914E+02   -0.69775E-04   -0.65934E-04    50   0.190E-01    0.110E-02
RMM:   3    -0.818397193177E+02   -0.13626E-04   -0.62877E-05    49   0.594E-02    0.873E-03
RMM:   4    -0.818397301687E+02   -0.10851E-04   -0.15122E-05    32   0.250E-02    0.481E-03
RMM:   5    -0.818397415480E+02   -0.11379E-04   -0.38227E-06    32   0.115E-02    0.147E-03
RMM:   6    -0.818397506957E+02   -0.91476E-05   -0.11720E-06    30   0.646E-03 
     60 T=   279. E= -.81776464E+02 F= -.81839079E+02 E0= -.81839079E+02  EK= 0.43339E+00 SP= -.38E+00 SK= 0.73E-02
 bond charge predicted
 prediction of wavefunctions
       N       E                     dE             d eps       ncg     rms          rms(c)
DAV:   1    -0.818366077309E+02    0.31338E-02   -0.11141E-02   100   0.893E-01    0.244E-02
RMM:   2    -0.818366523452E+02   -0.44614E-04   -0.43174E-04    50   0.156E-01    0.151E-02
RMM:   3    -0.818366653836E+02   -0.13038E-04   -0.39869E-05    41   0.480E-02    0.105E-02
RMM:   4    -0.818366834388E+02   -0.18055E-04   -0.10328E-05    32   0.211E-02    0.283E-03
RMM:   5    -0.818366921453E+02   -0.87065E-05   -0.24894E-06    32   0.100E-02 
     61 T=   274. E= -.81775389E+02 F= -.81836043E+02 E0= -.81836043E+02  EK= 0.42464E+00 SP= -.37E+00 SK= 0.17E-02
 bond charge predicted
 prediction of wavefunctions
       N       E                     dE             d eps       ncg     rms          rms(c)
DAV:   1    -0.818769359104E+02   -0.40252E-01   -0.10045E-02    75   0.789E-01    0.200E-02
RMM:   2    -0.818769677930E+02   -0.31883E-04   -0.33360E-04    50   0.135E-01    0.105E-02
RMM:   3    -0.818769749782E+02   -0.71851E-05   -0.32206E-05    38   0.416E-02 
     62 T=   298. E= -.81775276E+02 F= -.81876346E+02 E0= -.81876346E+02  EK= 0.46286E+00 SP= -.36E+00 SK= 0.19E-05
 bond charge predicted
 prediction of wavefunctions
       N       E                     dE             d eps       ncg     rms          rms(c)
DAV:   1    -0.819617200477E+02   -0.84752E-01   -0.11711E-02    75   0.798E-01    0.247E-02
RMM:   2    -0.819617466649E+02   -0.26617E-04   -0.31157E-04    50   0.134E-01    0.126E-02
RMM:   3    -0.819617595953E+02   -0.12930E-04   -0.46037E-05    44   0.465E-02    0.731E-03
RMM:   4    -0.819617698659E+02   -0.10271E-04   -0.81892E-06    32   0.182E-02    0.299E-03
RMM:   5    -0.819617785101E+02   -0.86442E-05   -0.24451E-06    32   0.974E-03 
     63 T=   354. E= -.81776332E+02 F= -.81961154E+02 E0= -.81961154E+02  EK= 0.54897E+00 SP= -.37E+00 SK= 0.13E-02
 bond charge predicted
 prediction of wavefunctions
       N       E                     dE             d eps       ncg     rms          rms(c)
DAV:   1    -0.820722838259E+02   -0.11051E+00   -0.16313E-02   100   0.933E-01    0.173E-02
RMM:   2    -0.820723210575E+02   -0.37232E-04   -0.34066E-04    50   0.144E-01    0.105E-02
RMM:   3    -0.820723291607E+02   -0.81031E-05   -0.29460E-05    40   0.422E-02 
     64 T=   429. E= -.81778216E+02 F= -.82071696E+02 E0= -.82071696E+02  EK= 0.66475E+00 SP= -.37E+00 SK= 0.32E-02
 bond charge predicted
 prediction of wavefunctions
       N       E                     dE             d eps       ncg     rms          rms(c)
DAV:   1    -0.821771231607E+02   -0.10480E+00   -0.22352E-02   100   0.110E+00    0.262E-02
RMM:   2    -0.821771873385E+02   -0.64178E-04   -0.64078E-04    50   0.202E-01    0.168E-02
RMM:   3    -0.821772017549E+02   -0.14416E-04   -0.65002E-05    47   0.628E-02    0.126E-02
RMM:   4    -0.821772178202E+02   -0.16065E-04   -0.13096E-05    32   0.263E-02    0.556E-03
RMM:   5    -0.821772299586E+02   -0.12138E-04   -0.31594E-06    32   0.117E-02    0.125E-03
RMM:   6    -0.821772349565E+02   -0.49979E-05   -0.11661E-06    28   0.699E-03 
     65 T=   502. E= -.81780205E+02 F= -.82176591E+02 E0= -.82176591E+02  EK= 0.77866E+00 SP= -.39E+00 SK= 0.39E-02
Information: wavefunction orthogonal band   25  0.8624
 bond charge predicted
 prediction of wavefunctions
       N       E                     dE             d eps       ncg     rms          rms(c)
DAV:   1    -0.822457657200E+02   -0.68536E-01   -0.28176E-02   100   0.123E+00    0.224E-02
RMM:   2    -0.822458349749E+02   -0.69255E-04   -0.66946E-04    50   0.193E-01    0.113E-02
RMM:   3    -0.822458443619E+02   -0.93870E-05   -0.50970E-05    46   0.554E-02 
     66 T=   553. E= -.81781428E+02 F= -.82245193E+02 E0= -.82245193E+02  EK= 0.85844E+00 SP= -.40E+00 SK= 0.31E-02
 bond charge predicted
 prediction of wavefunctions
       N       E                     dE             d eps       ncg     rms          rms(c)
DAV:   1    -0.822606647108E+02   -0.14830E-01   -0.32110E-02   100   0.132E+00    0.270E-02
RMM:   2    -0.822607755799E+02   -0.11087E-03   -0.10917E-03    50   0.257E-01    0.197E-02
RMM:   3    -0.822607910640E+02   -0.15484E-04   -0.95537E-05    49   0.775E-02    0.163E-02
RMM:   4    -0.822608080455E+02   -0.16981E-04   -0.21226E-05    32   0.333E-02    0.702E-03
RMM:   5    -0.822608220317E+02   -0.13986E-04   -0.53244E-06    31   0.151E-02    0.132E-03
RMM:   6    -0.822608277098E+02   -0.56781E-05   -0.15826E-06    31   0.789E-03 
     67 T=   570. E= -.81781447E+02 F= -.82260175E+02 E0= -.82260175E+02  EK= 0.88425E+00 SP= -.41E+00 SK= 0.17E-02
 bond charge predicted
 prediction of wavefunctions
       N       E                     dE             d eps       ncg     rms          rms(c)
DAV:   1    -0.822236363078E+02    0.37186E-01   -0.32548E-02   100   0.127E+00    0.244E-02
RMM:   2    -0.822237146523E+02   -0.78344E-04   -0.82372E-04    50   0.212E-01    0.124E-02
RMM:   3    -0.822237226844E+02   -0.80320E-05   -0.63672E-05    48   0.613E-02 
     68 T=   552. E= -.81780338E+02 F= -.82223070E+02 E0= -.82223070E+02  EK= 0.85597E+00 SP= -.41E+00 SK= 0.77E-03
 bond charge predicted
 prediction of wavefunctions
       N       E                     dE             d eps       ncg     rms          rms(c)
DAV:   1    -0.821522339645E+02    0.71481E-01   -0.31165E-02    75   0.126E+00    0.311E-02
RMM:   2    -0.821523508528E+02   -0.11689E-03   -0.11862E-03    50   0.254E-01    0.190E-02
RMM:   3    -0.821523688321E+02   -0.17979E-04   -0.11969E-04    49   0.813E-02    0.144E-02
RMM:   4    -0.821523814044E+02   -0.12572E-04   -0.27414E-05    35   0.348E-02    0.635E-03
RMM:   5    -0.821523918239E+02   -0.10419E-04   -0.66182E-06    32   0.160E-02    0.169E-03
RMM:   6    -0.821523970390E+02   -0.52151E-05   -0.22087E-06    32   0.905E-03 
     69 T=   510. E= -.81778671E+02 F= -.82151735E+02 E0= -.82151735E+02  EK= 0.79138E+00 SP= -.42E+00 SK= 0.42E-03
 bond charge predicted
 prediction of wavefunctions
       N       E                     dE             d eps       ncg     rms          rms(c)
DAV:   1    -0.820727212551E+02    0.79671E-01   -0.27323E-02   100   0.116E+00    0.218E-02
RMM:   2    -0.820727913656E+02   -0.70111E-04   -0.69865E-04    50   0.187E-01    0.125E-02
RMM:   3    -0.820728008453E+02   -0.94797E-05   -0.61644E-05    46   0.569E-02 
     70 T=   463. E= -.81777064E+02 F= -.82072123E+02 E0= -.82072123E+02  EK= 0.71753E+00 SP= -.42E+00 SK= 0.52E-03
 bond charge predicted
 prediction of wavefunctions
       N       E                     dE             d eps       ncg     rms          rms(c)
DAV:   1    -0.820090581838E+02    0.63733E-01   -0.20576E-02   100   0.105E+00    0.201E-02
RMM:   2    -0.820091294695E+02   -0.71286E-04   -0.65094E-04    50   0.183E-01    0.132E-02
RMM:   3    -0.820091467794E+02   -0.17310E-04   -0.81193E-05    48   0.622E-02    0.109E-02
RMM:   4    -0.820091630388E+02   -0.16259E-04   -0.18135E-05    34   0.263E-02    0.503E-03
RMM:   5    -0.820091789021E+02   -0.15863E-04   -0.48430E-06    32   0.131E-02    0.225E-03
RMM:   6    -0.820091834329E+02   -0.45308E-05   -0.18514E-06    32   0.804E-03 
     71 T=   425. E= -.81776083E+02 F= -.82008499E+02 E0= -.82008499E+02  EK= 0.65981E+00 SP= -.43E+00 SK= 0.11E-02
Information: wavefunction orthogonal band   25  0.8152
 bond charge predicted
 prediction of wavefunctions
       N       E                     dE             d eps       ncg     rms          rms(c)
DAV:   1    -0.819765747734E+02    0.32604E-01   -0.16778E-02   100   0.953E-01    0.108E-02
RMM:   2    -0.819766135865E+02   -0.38813E-04   -0.30694E-04    50   0.124E-01    0.593E-03
RMM:   3    -0.819766221957E+02   -0.86092E-05   -0.31449E-05    38   0.364E-02 
     72 T=   409. E= -.81775893E+02 F= -.81975943E+02 E0= -.81975943E+02  EK= 0.63430E+00 SP= -.44E+00 SK= 0.25E-02
 bond charge predicted
 prediction of wavefunctions
       N       E                     dE             d eps       ncg     rms          rms(c)
DAV:   1    -0.819782310482E+02   -0.16175E-02   -0.16152E-02   100   0.963E-01    0.158E-02
RMM:   2    -0.819782724733E+02   -0.41425E-04   -0.31190E-04    50   0.132E-01    0.119E-02
RMM:   3    -0.819782867925E+02   -0.14319E-04   -0.33444E-05    41   0.407E-02    0.816E-03
RMM:   4    -0.819783062035E+02   -0.19411E-04   -0.85507E-06    32   0.178E-02    0.203E-03
RMM:   5    -0.819783155318E+02   -0.93283E-05   -0.23000E-06    32   0.867E-03 
     73 T=   416. E= -.81776345E+02 F= -.81977654E+02 E0= -.81977654E+02  EK= 0.64507E+00 SP= -.45E+00 SK= 0.46E-02
 bond charge predicted
 prediction of wavefunctions
       N       E                     dE             d eps       ncg     rms          rms(c)
DAV:   1    -0.820070635823E+02   -0.28757E-01   -0.19326E-02   100   0.104E+00    0.152E-02
RMM:   2    -0.820071002235E+02   -0.36641E-04   -0.32939E-04    50   0.137E-01    0.784E-03
RMM:   3    -0.820071072586E+02   -0.70351E-05   -0.29264E-05    37   0.382E-02 
     74 T=   442. E= -.81777186E+02 F= -.82006469E+02 E0= -.82006469E+02  EK= 0.68560E+00 SP= -.46E+00 SK= 0.67E-02
 bond charge predicted
 prediction of wavefunctions
       N       E                     dE             d eps       ncg     rms          rms(c)
DAV:   1    -0.820491576919E+02   -0.42057E-01   -0.25473E-02    75   0.116E+00    0.187E-02
RMM:   2    -0.820492200293E+02   -0.62337E-04   -0.54400E-04    50   0.179E-01    0.143E-02
RMM:   3    -0.820492323151E+02   -0.12286E-04   -0.55913E-05    46   0.538E-02    0.108E-02
RMM:   4    -0.820492508697E+02   -0.18555E-04   -0.14451E-05    32   0.250E-02    0.285E-03
RMM:   5    -0.820492587923E+02   -0.79225E-05   -0.34749E-06    32   0.112E-02 
     75 T=   478. E= -.81778275E+02 F= -.82048634E+02 E0= -.82048634E+02  EK= 0.74214E+00 SP= -.48E+00 SK= 0.80E-02
 bond charge predicted
 prediction of wavefunctions
       N       E                     dE             d eps       ncg     rms          rms(c)
DAV:   1    -0.820877269106E+02   -0.38476E-01   -0.33658E-02   100   0.127E+00    0.157E-02
RMM:   2    -0.820877793116E+02   -0.52401E-04   -0.48461E-04    50   0.165E-01    0.986E-03
RMM:   3    -0.820877859896E+02   -0.66781E-05   -0.36738E-05    41   0.443E-02 
     76 T=   514. E= -.81779502E+02 F= -.82087167E+02 E0= -.82087167E+02  EK= 0.79691E+00 SP= -.50E+00 SK= 0.80E-02
 bond charge predicted
 prediction of wavefunctions
       N       E                     dE             d eps       ncg     rms          rms(c)
DAV:   1    -0.821052791317E+02   -0.17500E-01   -0.39273E-02    75   0.136E+00    0.201E-02
RMM:   2    -0.821053674577E+02   -0.88326E-04   -0.80209E-04    50   0.212E-01    0.154E-02
RMM:   3    -0.821053819069E+02   -0.14449E-04   -0.78121E-05    48   0.642E-02    0.121E-02
RMM:   4    -0.821054006692E+02   -0.18762E-04   -0.19686E-05    33   0.281E-02    0.457E-03
RMM:   5    -0.821054131310E+02   -0.12462E-04   -0.43213E-06    32   0.123E-02    0.122E-03
RMM:   6    -0.821054195406E+02   -0.64097E-05   -0.15267E-06    32   0.725E-03 
     77 T=   536. E= -.81780631E+02 F= -.82104817E+02 E0= -.82104817E+02  EK= 0.83134E+00 SP= -.51E+00 SK= 0.69E-02
 bond charge predicted
 prediction of wavefunctions
       N       E                     dE             d eps       ncg     rms          rms(c)
DAV:   1    -0.820879765750E+02    0.17437E-01   -0.43021E-02   100   0.139E+00    0.155E-02
RMM:   2    -0.820880464112E+02   -0.69836E-04   -0.62673E-04    50   0.180E-01    0.958E-03
RMM:   3    -0.820880551666E+02   -0.87554E-05   -0.44604E-05    44   0.500E-02 
     78 T=   535. E= -.81781279E+02 F= -.82087480E+02 E0= -.82087480E+02  EK= 0.83012E+00 SP= -.53E+00 SK= 0.56E-02
Information: wavefunction orthogonal band   25  0.8084
 bond charge predicted
 prediction of wavefunctions
       N       E                     dE             d eps       ncg     rms          rms(c)
DAV:   1    -0.820297466473E+02    0.58300E-01   -0.43694E-02    75   0.139E+00    0.233E-02
RMM:   2    -0.820298521641E+02   -0.10552E-03   -0.99910E-04    50   0.238E-01    0.172E-02
RMM:   3    -0.820298671705E+02   -0.15006E-04   -0.91683E-05    49   0.739E-02    0.140E-02
RMM:   4    -0.820298827491E+02   -0.15579E-04   -0.19946E-05    32   0.314E-02    0.644E-03
RMM:   5    -0.820298965560E+02   -0.13807E-04   -0.48772E-06    32   0.139E-02    0.143E-03
RMM:   6    -0.820299019168E+02   -0.53608E-05   -0.15889E-06    32   0.804E-03 
     79 T=   507. E= -.81781088E+02 F= -.82029361E+02 E0= -.82029361E+02  EK= 0.78703E+00 SP= -.54E+00 SK= 0.47E-02
 bond charge predicted
 prediction of wavefunctions
       N       E                     dE             d eps       ncg     rms          rms(c)
DAV:   1    -0.819388830545E+02    0.91014E-01   -0.40596E-02    75   0.131E+00    0.228E-02
RMM:   2    -0.819389663936E+02   -0.83339E-04   -0.83846E-04    50   0.205E-01    0.122E-02
RMM:   3    -0.819389755501E+02   -0.91565E-05   -0.67930E-05    47   0.630E-02 
     80 T=   458. E= -.81779813E+02 F= -.81938467E+02 E0= -.81938467E+02  EK= 0.71078E+00 SP= -.56E+00 SK= 0.50E-02
 bond charge predicted
 prediction of wavefunctions
       N       E                     dE             d eps       ncg     rms          rms(c)
DAV:   1    -0.818396212298E+02    0.99345E-01   -0.35510E-02    75   0.123E+00    0.337E-02
RMM:   2    -0.818397218382E+02   -0.10061E-03   -0.10737E-03    50   0.245E-01    0.227E-02
RMM:   3    -0.818397397424E+02   -0.17904E-04   -0.10687E-04    49   0.782E-02    0.148E-02
RMM:   4    -0.818397570225E+02   -0.17280E-04   -0.30024E-05    38   0.356E-02    0.467E-03
RMM:   5    -0.818397665388E+02   -0.95163E-05   -0.60638E-06    32   0.155E-02 
     81 T=   404. E= -.81777763E+02 F= -.81839276E+02 E0= -.81839276E+02  EK= 0.62678E+00 SP= -.57E+00 SK= 0.71E-02
 bond charge predicted
 prediction of wavefunctions
       N       E                     dE             d eps       ncg     rms          rms(c)
DAV:   1    -0.817675594905E+02    0.72198E-01   -0.31014E-02    75   0.111E+00    0.309E-02
RMM:   2    -0.817676107572E+02   -0.51267E-04   -0.58560E-04    50   0.174E-01    0.152E-02
RMM:   3    -0.817676200274E+02   -0.92702E-05   -0.55230E-05    45   0.549E-02 
     82 T=   368. E= -.73816934E+02 F= -.73808307E+02 E0= -.73808307E+02  EK= 0.57095E+00 SP= -.59E+00 SK= 0.11E-01
 bond charge predicted
 prediction of wavefunctions
       N       E                     dE             d eps       ncg     rms          rms(c)
DAV:   1    -0.817540536460E+02    0.13557E-01   -0.27965E-02   100   0.104E+00    0.305E-02
RMM:   2    -0.817541110382E+02   -0.57392E-04   -0.55649E-04    50   0.182E-01    0.222E-02
RMM:   3    -0.817541306174E+02   -0.19579E-04   -0.58910E-05    45   0.579E-02    0.145E-02
RMM:   4    -0.817541531841E+02   -0.22567E-04   -0.14712E-05    32   0.260E-02    0.385E-03
RMM:   5    -0.817541637484E+02   -0.10564E-04   -0.31422E-06    32   0.112E-02    0.115E-03
RMM:   6    -0.817541733351E+02   -0.95867E-05   -0.91507E-07    28   0.625E-03 
     83 T=   371. E= -.81774935E+02 F= -.81753720E+02 E0= -.81753720E+02  EK= 0.57547E+00 SP= -.61E+00 SK= 0.18E-01
 bond charge predicted
 prediction of wavefunctions
       N       E                     dE             d eps       ncg     rms          rms(c)
DAV:   1    -0.818099345869E+02   -0.55771E-01   -0.28227E-02    75   0.106E+00    0.199E-02
RMM:   2    -0.818099769695E+02   -0.42383E-04   -0.39885E-04    50   0.148E-01    0.122E-02
RMM:   3    -0.818099883394E+02   -0.11370E-04   -0.40939E-05    43   0.457E-02    0.731E-03
RMM:   4    -0.818099992037E+02   -0.10864E-04   -0.10031E-05    32   0.191E-02    0.288E-03
RMM:   5    -0.818100075668E+02   -0.83631E-05   -0.23518E-06    32   0.946E-03 
     84 T=   421. E= -.81775838E+02 F= -.81809559E+02 E0= -.81809559E+02  EK= 0.65241E+00 SP= -.64E+00 SK= 0.24E-01
 bond charge predicted
 prediction of wavefunctions
       N       E                     dE             d eps       ncg     rms          rms(c)
DAV:   1    -0.819165708047E+02   -0.10657E+00   -0.31795E-02   100   0.122E+00    0.193E-02
RMM:   2    -0.819166188167E+02   -0.48012E-04   -0.46958E-04    50   0.170E-01    0.121E-02
RMM:   3    -0.819166288219E+02   -0.10005E-04   -0.39532E-05    44   0.489E-02    0.812E-03
RMM:   4    -0.819166397267E+02   -0.10905E-04   -0.76184E-06    32   0.193E-02    0.337E-03
RMM:   5    -0.819166477350E+02   -0.80083E-05   -0.18879E-06    32   0.888E-03 
     85 T=   506. E= -.79925542E+02 F= -.80063470E+02 E0= -.80063470E+02  EK= 0.78526E+00 SP= -.67E+00 SK= 0.26E-01
 bond charge predicted
 prediction of wavefunctions
       N       E                     dE             d eps       ncg     rms          rms(c)
DAV:   1    -0.820344292256E+02   -0.11779E+00   -0.37312E-02    75   0.141E+00    0.222E-02
RMM:   2    -0.820345089241E+02   -0.79698E-04   -0.82057E-04    50   0.218E-01    0.143E-02
RMM:   3    -0.820345172353E+02   -0.83112E-05   -0.63544E-05    47   0.592E-02 
     86 T=   602. E= -.81781194E+02 F= -.82034097E+02 E0= -.82034097E+02  EK= 0.93441E+00 SP= -.70E+00 SK= 0.23E-01
 bond charge predicted
 prediction of wavefunctions
       N       E                     dE             d eps       ncg     rms          rms(c)
DAV:   1    -0.821218990221E+02   -0.87390E-01   -0.42383E-02   100   0.156E+00    0.348E-02
RMM:   2    -0.821220080070E+02   -0.10898E-03   -0.11888E-03    50   0.269E-01    0.237E-02
RMM:   3    -0.821220250113E+02   -0.17004E-04   -0.10750E-04    49   0.793E-02    0.173E-02
RMM:   4    -0.821220419859E+02   -0.16975E-04   -0.23123E-05    34   0.330E-02    0.694E-03
RMM:   5    -0.821220504640E+02   -0.84781E-05   -0.50409E-06    32   0.150E-02 
     87 T=   680. E= -.81783309E+02 F= -.82121645E+02 E0= -.82121645E+02  EK= 0.10544E+01 SP= -.73E+00 SK= 0.15E-01
 bond charge predicted
 prediction of wavefunctions
       N       E                     dE             d eps       ncg     rms          rms(c)
DAV:   1    -0.821534796078E+02   -0.31438E-01   -0.44428E-02    75   0.160E+00    0.282E-02
RMM:   2    -0.821536012463E+02   -0.12164E-03   -0.12240E-03    50   0.258E-01    0.124E-02
RMM:   3    -0.821536136953E+02   -0.12449E-04   -0.88966E-05    48   0.707E-02    0.951E-03
RMM:   4    -0.821536196360E+02   -0.59407E-05   -0.18753E-05    33   0.273E-02 
     88 T=   718. E= -.81783802E+02 F= -.82153222E+02 E0= -.82153222E+02  EK= 0.11134E+01 SP= -.75E+00 SK= 0.63E-02
 bond charge predicted
 prediction of wavefunctions
       N       E                     dE             d eps       ncg     rms          rms(c)
DAV:   1    -0.821272499397E+02    0.26364E-01   -0.41870E-02   100   0.152E+00    0.286E-02
RMM:   2    -0.821273463467E+02   -0.96407E-04   -0.10513E-03    50   0.241E-01    0.176E-02
RMM:   3    -0.821273590658E+02   -0.12719E-04   -0.87028E-05    49   0.700E-02    0.118E-02
RMM:   4    -0.821273694952E+02   -0.10429E-04   -0.19586E-05    33   0.284E-02    0.460E-03
RMM:   5    -0.821273765164E+02   -0.70212E-05   -0.39092E-06    32   0.122E-02 
     89 T=   712. E= -.81782687E+02 F= -.82126991E+02 E0= -.82126991E+02  EK= 0.11045E+01 SP= -.76E+00 SK= 0.12E-02
 bond charge predicted
 prediction of wavefunctions
       N       E                     dE             d eps       ncg     rms          rms(c)
DAV:   1    -0.820620903214E+02    0.65279E-01   -0.38655E-02   100   0.144E+00    0.260E-02
RMM:   2    -0.820621877820E+02   -0.97461E-04   -0.10315E-03    50   0.242E-01    0.166E-02
RMM:   3    -0.820621992215E+02   -0.11439E-04   -0.87081E-05    49   0.702E-02    0.118E-02
RMM:   4    -0.820622086547E+02   -0.94332E-05   -0.19008E-05    32   0.290E-02 
     90 T=   674. E= -.81780659E+02 F= -.82061848E+02 E0= -.82061848E+02  EK= 0.10456E+01 SP= -.76E+00 SK= 0.19E-04
 bond charge predicted
 prediction of wavefunctions
       N       E                     dE             d eps       ncg     rms          rms(c)
DAV:   1    -0.819880372526E+02    0.74162E-01   -0.31587E-02   100   0.131E+00    0.266E-02
RMM:   2    -0.819881304708E+02   -0.93218E-04   -0.94675E-04    50   0.232E-01    0.159E-02
RMM:   3    -0.819881434457E+02   -0.12975E-04   -0.81433E-05    48   0.667E-02    0.114E-02
RMM:   4    -0.819881572452E+02   -0.13800E-04   -0.21856E-05    35   0.304E-02    0.392E-03
RMM:   5    -0.819881650383E+02   -0.77931E-05   -0.42672E-06    32   0.127E-02 
     91 T=   625. E= -.81778643E+02 F= -.81987831E+02 E0= -.81987831E+02  EK= 0.96872E+00 SP= -.76E+00 SK= 0.12E-02
 bond charge predicted
 prediction of wavefunctions
       N       E                     dE             d eps       ncg     rms          rms(c)
DAV:   1    -0.819345748835E+02    0.53582E-01   -0.25227E-02    75   0.117E+00    0.213E-02
RMM:   2    -0.819346496584E+02   -0.74775E-04   -0.72275E-04    50   0.198E-01    0.114E-02
RMM:   3    -0.819346604377E+02   -0.10779E-04   -0.67927E-05    48   0.601E-02    0.869E-03
RMM:   4    -0.819346700616E+02   -0.96239E-05   -0.16328E-05    32   0.264E-02 
     92 T=   584. E= -.81777403E+02 F= -.81934357E+02 E0= -.81934357E+02  EK= 0.90595E+00 SP= -.75E+00 SK= 0.30E-02
 bond charge predicted
 prediction of wavefunctions
       N       E                     dE             d eps       ncg     rms          rms(c)
DAV:   1    -0.819202711921E+02    0.14389E-01   -0.21719E-02    75   0.108E+00    0.163E-02
RMM:   2    -0.819203220142E+02   -0.50822E-04   -0.47988E-04    50   0.167E-01    0.953E-03
RMM:   3    -0.819203306546E+02   -0.86404E-05   -0.48720E-05    43   0.495E-02 
     93 T=   566. E= -.81777217E+02 F= -.81920032E+02 E0= -.81920032E+02  EK= 0.87790E+00 SP= -.74E+00 SK= 0.48E-02
 bond charge predicted
 prediction of wavefunctions
       N       E                     dE             d eps       ncg     rms          rms(c)
DAV:   1    -0.819480571308E+02   -0.27735E-01   -0.22667E-02   100   0.109E+00    0.159E-02
RMM:   2    -0.819481061297E+02   -0.48999E-04   -0.41717E-04    50   0.161E-01    0.121E-02
RMM:   3    -0.819481166250E+02   -0.10495E-04   -0.41619E-05    42   0.481E-02    0.962E-03
RMM:   4    -0.819481309991E+02   -0.14374E-04   -0.96553E-06    32   0.201E-02    0.297E-03
RMM:   5    -0.819481389852E+02   -0.79861E-05   -0.25576E-06    32   0.967E-03 
     94 T=   573. E= -.81777946E+02 F= -.81947858E+02 E0= -.81947858E+02  EK= 0.88812E+00 SP= -.73E+00 SK= 0.68E-02
 bond charge predicted
 prediction of wavefunctions
       N       E                     dE             d eps       ncg     rms          rms(c)
DAV:   1    -0.820072701032E+02   -0.59139E-01   -0.26678E-02   100   0.116E+00    0.163E-02
RMM:   2    -0.820073124997E+02   -0.42397E-04   -0.36101E-04    50   0.148E-01    0.921E-03
RMM:   3    -0.820073217563E+02   -0.92565E-05   -0.27889E-05    37   0.407E-02 
     95 T=   597. E= -.81779116E+02 F= -.82007064E+02 E0= -.82007064E+02  EK= 0.92530E+00 SP= -.71E+00 SK= 0.99E-02
Information: wavefunction orthogonal band   25  0.8709
 bond charge predicted
 prediction of wavefunctions
       N       E                     dE             d eps       ncg     rms          rms(c)
DAV:   1    -0.820798539268E+02   -0.72541E-01   -0.32529E-02   100   0.126E+00    0.219E-02
RMM:   2    -0.820799137342E+02   -0.59807E-04   -0.55857E-04    50   0.186E-01    0.150E-02
RMM:   3    -0.820799277752E+02   -0.14041E-04   -0.53266E-05    46   0.552E-02    0.102E-02
RMM:   4    -0.820799449835E+02   -0.17208E-04   -0.11866E-05    32   0.231E-02    0.356E-03
RMM:   5    -0.820799564250E+02   -0.11442E-04   -0.27866E-06    32   0.104E-02    0.950E-04
RMM:   6    -0.820799649841E+02   -0.85591E-05   -0.78533E-07    26   0.593E-03 
     96 T=   625. E= -.81780282E+02 F= -.82079737E+02 E0= -.82079737E+02  EK= 0.97020E+00 SP= -.69E+00 SK= 0.15E-01
 bond charge predicted
 prediction of wavefunctions
       N       E                     dE             d eps       ncg     rms          rms(c)
DAV:   1    -0.821475388040E+02   -0.67582E-01   -0.37944E-02   100   0.134E+00    0.210E-02
RMM:   2    -0.821475937582E+02   -0.54954E-04   -0.57478E-04    50   0.179E-01    0.128E-02
RMM:   3    -0.821476003551E+02   -0.65969E-05   -0.48658E-05    43   0.508E-02 
     97 T=   647. E= -.81781078E+02 F= -.82147404E+02 E0= -.82147404E+02  EK= 0.10030E+01 SP= -.66E+00 SK= 0.22E-01
 bond charge predicted
 prediction of wavefunctions
       N       E                     dE             d eps       ncg     rms          rms(c)
DAV:   1    -0.821955845607E+02   -0.47991E-01   -0.40846E-02    75   0.138E+00    0.274E-02
RMM:   2    -0.821956755772E+02   -0.91017E-04   -0.93765E-04    50   0.232E-01    0.188E-02
RMM:   3    -0.821956902983E+02   -0.14721E-04   -0.94634E-05    49   0.712E-02    0.131E-02
RMM:   4    -0.821957041921E+02   -0.13894E-04   -0.23657E-05    35   0.307E-02    0.477E-03
RMM:   5    -0.821957128197E+02   -0.86276E-05   -0.45647E-06    32   0.131E-02 
     98 T=   650. E= -.81781424E+02 F= -.82195540E+02 E0= -.82195540E+02  EK= 0.10085E+01 SP= -.63E+00 SK= 0.32E-01
 bond charge predicted
 prediction of wavefunctions
       N       E                     dE             d eps       ncg     rms          rms(c)
DAV:   1    -0.822149462864E+02   -0.19242E-01   -0.41679E-02   100   0.137E+00    0.209E-02
RMM:   2    -0.822150132259E+02   -0.66939E-04   -0.70725E-04    50   0.196E-01    0.109E-02
RMM:   3    -0.822150211159E+02   -0.78900E-05   -0.59269E-05    48   0.571E-02 
     99 T=   631. E= -.81781356E+02 F= -.82214865E+02 E0= -.82214865E+02  EK= 0.97852E+00 SP= -.59E+00 SK= 0.44E-01
 bond charge predicted
 prediction of wavefunctions
       N       E                     dE             d eps       ncg     rms          rms(c)
DAV:   1    -0.822012707889E+02    0.13742E-01   -0.38892E-02   100   0.134E+00    0.246E-02
RMM:   2    -0.822013573131E+02   -0.86524E-04   -0.88402E-04    50   0.227E-01    0.176E-02
RMM:   3    -0.822013704826E+02   -0.13169E-04   -0.84458E-05    50   0.702E-02    0.118E-02
RMM:   4    -0.822013816504E+02   -0.11168E-04   -0.20485E-05    32   0.297E-02    0.411E-03
RMM:   5    -0.822013886842E+02   -0.70337E-05   -0.46324E-06    32   0.131E-02 
    100 T=   588. E= -.81780916E+02 F= -.82201249E+02 E0= -.82201249E+02  EK= 0.91212E+00 SP= -.55E+00 SK= 0.54E-01
 bond charge predicted
 prediction of wavefunctions
       N       E                     dE             d eps       ncg     rms          rms(c)
DAV:   1    -0.821564923390E+02    0.44889E-01   -0.34207E-02   100   0.127E+00    0.194E-02
RMM:   2    -0.821565631940E+02   -0.70855E-04   -0.67430E-04    50   0.191E-01    0.877E-03
RMM:   3    -0.821565733382E+02   -0.10144E-04   -0.49838E-05    47   0.555E-02    0.594E-03
RMM:   4    -0.821565822637E+02   -0.89255E-05   -0.10874E-05    32   0.226E-02 
    101 T=   526. E= -.81780040E+02 F= -.82156462E+02 E0= -.82156462E+02  EK= 0.81575E+00 SP= -.50E+00 SK= 0.60E-01
Information: wavefunction orthogonal band   25  0.8759
 bond charge predicted
 prediction of wavefunctions
       N       E                     dE             d eps       ncg     rms          rms(c)
DAV:   1    -0.820906362713E+02    0.65937E-01   -0.29435E-02   100   0.123E+00    0.225E-02
RMM:   2    -0.820907113665E+02   -0.75095E-04   -0.76226E-04    50   0.212E-01    0.137E-02
RMM:   3    -0.820907223084E+02   -0.10942E-04   -0.63888E-05    50   0.625E-02    0.961E-03
RMM:   4    -0.820907319520E+02   -0.96436E-05   -0.14767E-05    32   0.258E-02 
    102 T=   454. E= -.81778714E+02 F= -.82090632E+02 E0= -.82090632E+02  EK= 0.70418E+00 SP= -.45E+00 SK= 0.59E-01
 bond charge predicted
 prediction of wavefunctions
       N       E                     dE             d eps       ncg     rms          rms(c)
DAV:   1    -0.820239458897E+02    0.66776E-01   -0.24989E-02   100   0.116E+00    0.322E-02
RMM:   2    -0.820240080648E+02   -0.62175E-04   -0.73733E-04    50   0.208E-01    0.173E-02
RMM:   3    -0.820240187311E+02   -0.10666E-04   -0.75143E-05    48   0.663E-02    0.956E-03
RMM:   4    -0.820240258363E+02   -0.71052E-05   -0.16214E-05    32   0.273E-02 
    103 T=   387. E= -.81777249E+02 F= -.82023944E+02 E0= -.82023944E+02  EK= 0.60018E+00 SP= -.41E+00 SK= 0.52E-01
 bond charge predicted
 prediction of wavefunctions
       N       E                     dE             d eps       ncg     rms          rms(c)
DAV:   1    -0.819823329261E+02    0.41686E-01   -0.20927E-02    75   0.107E+00    0.344E-02
RMM:   2    -0.819823910831E+02   -0.58157E-04   -0.71784E-04    50   0.204E-01    0.186E-02
RMM:   3    -0.819824018551E+02   -0.10772E-04   -0.81205E-05    48   0.678E-02    0.986E-03
RMM:   4    -0.819824083127E+02   -0.64577E-05   -0.18038E-05    32   0.288E-02 
    104 T=   341. E= -.81776252E+02 F= -.81982340E+02 E0= -.81982340E+02  EK= 0.52928E+00 SP= -.36E+00 SK= 0.40E-01
 bond charge predicted
 prediction of wavefunctions
       N       E                     dE             d eps       ncg     rms          rms(c)
DAV:   1    -0.819863637666E+02   -0.39619E-02   -0.17710E-02    75   0.969E-01    0.258E-02
RMM:   2    -0.819864135168E+02   -0.49750E-04   -0.54358E-04    50   0.173E-01    0.140E-02
RMM:   3    -0.819864238792E+02   -0.10362E-04   -0.61734E-05    47   0.590E-02    0.841E-03
RMM:   4    -0.819864313999E+02   -0.75206E-05   -0.13786E-05    32   0.250E-02 
    105 T=   328. E= -.81776293E+02 F= -.81986373E+02 E0= -.81986373E+02  EK= 0.50944E+00 SP= -.33E+00 SK= 0.28E-01
 bond charge predicted
 prediction of wavefunctions
       N       E                     dE             d eps       ncg     rms          rms(c)
DAV:   1    -0.820395601596E+02   -0.53136E-01   -0.16796E-02    75   0.942E-01    0.170E-02
RMM:   2    -0.820396051945E+02   -0.45035E-04   -0.43714E-04    50   0.152E-01    0.947E-03
RMM:   3    -0.820396140338E+02   -0.88393E-05   -0.46316E-05    41   0.504E-02 
    106 T=   349. E= -.81777469E+02 F= -.82039564E+02 E0= -.82039564E+02  EK= 0.54153E+00 SP= -.30E+00 SK= 0.18E-01
Information: wavefunction orthogonal band   25  0.8997
 bond charge predicted
 prediction of wavefunctions
       N       E                     dE             d eps       ncg     rms          rms(c)
DAV:   1    -0.821251089835E+02   -0.85504E-01   -0.18348E-02   100   0.102E+00    0.182E-02
RMM:   2    -0.821251564965E+02   -0.47513E-04   -0.42849E-04    50   0.156E-01    0.134E-02
RMM:   3    -0.821251674861E+02   -0.10990E-04   -0.43539E-05    42   0.493E-02    0.945E-03
RMM:   4    -0.821251809492E+02   -0.13463E-04   -0.95688E-06    32   0.204E-02    0.306E-03
RMM:   5    -0.821251891607E+02   -0.82114E-05   -0.23765E-06    32   0.944E-03 
    107 T=   392. E= -.81779258E+02 F= -.82125149E+02 E0= -.82125149E+02  EK= 0.60751E+00 SP= -.27E+00 SK= 0.12E-01
 bond charge predicted
 prediction of wavefunctions
       N       E                     dE             d eps       ncg     rms          rms(c)
DAV:   1    -0.822143075072E+02   -0.89127E-01   -0.21003E-02   100   0.111E+00    0.217E-02
RMM:   2    -0.822143493783E+02   -0.41871E-04   -0.40744E-04    50   0.153E-01    0.112E-02
RMM:   3    -0.822143576869E+02   -0.83086E-05   -0.32913E-05    40   0.436E-02 
    108 T=   437. E= -.81780860E+02 F= -.82214329E+02 E0= -.82214329E+02  EK= 0.67835E+00 SP= -.25E+00 SK= 0.89E-02
 bond charge predicted
 prediction of wavefunctions
       N       E                     dE             d eps       ncg     rms          rms(c)
DAV:   1    -0.822797926291E+02   -0.65443E-01   -0.23804E-02   100   0.119E+00    0.251E-02
RMM:   2    -0.822798596931E+02   -0.67064E-04   -0.66836E-04    50   0.201E-01    0.165E-02
RMM:   3    -0.822798720792E+02   -0.12386E-04   -0.61201E-05    46   0.602E-02    0.127E-02
RMM:   4    -0.822798874773E+02   -0.15398E-04   -0.13055E-05    32   0.249E-02    0.495E-03
RMM:   5    -0.822798978083E+02   -0.10331E-04   -0.31426E-06    31   0.112E-02    0.115E-03
RMM:   6    -0.822799036244E+02   -0.58161E-05   -0.10588E-06    28   0.660E-03 
    109 T=   469. E= -.81781657E+02 F= -.82279884E+02 E0= -.82279884E+02  EK= 0.72685E+00 SP= -.24E+00 SK= 0.75E-02
 bond charge predicted
 prediction of wavefunctions
       N       E                     dE             d eps       ncg     rms          rms(c)
DAV:   1    -0.823064082673E+02   -0.26510E-01   -0.25549E-02    75   0.120E+00    0.232E-02
RMM:   2    -0.823064711198E+02   -0.62853E-04   -0.66471E-04    50   0.186E-01    0.117E-02
RMM:   3    -0.823064774414E+02   -0.63216E-05   -0.56682E-05    47   0.552E-02 
    110 T=   476. E= -.81781516E+02 F= -.82306464E+02 E0= -.82306464E+02  EK= 0.73773E+00 SP= -.22E+00 SK= 0.68E-02
 bond charge predicted
 prediction of wavefunctions
       N       E                     dE             d eps       ncg     rms          rms(c)
DAV:   1    -0.822935472281E+02    0.12924E-01   -0.24572E-02    50   0.119E+00    0.224E-02
RMM:   2    -0.822936542319E+02   -0.10700E-03   -0.10581E-03    50   0.242E-01    0.180E-02
RMM:   3    -0.822936674346E+02   -0.13203E-04   -0.10773E-04    51   0.737E-02    0.152E-02
RMM:   4    -0.822936771708E+02   -0.97362E-05   -0.24940E-05    35   0.312E-02 
    111 T=   458. E= -.81780686E+02 F= -.82293668E+02 E0= -.82293668E+02  EK= 0.71097E+00 SP= -.20E+00 SK= 0.60E-02
 bond charge predicted
 prediction of wavefunctions
       N       E                     dE             d eps       ncg     rms          rms(c)
[...]
RMM:   3    -0.816763732482E+02   -0.13035E-04   -0.92523E-05    50   0.676E-02    0.146E-02
RMM:   4    -0.816763847421E+02   -0.11494E-04   -0.22956E-05    33   0.293E-02    0.673E-03
RMM:   5    -0.816763957132E+02   -0.10971E-04   -0.64251E-06    32   0.146E-02    0.224E-03
RMM:   6    -0.816763995253E+02   -0.38121E-05   -0.20350E-06    32   0.824E-03 
   3991 T=   556. E= -.81888585E+02 F= -.81676381E+02 E0= -.81676381E+02  EK= 0.86282E+00 SP= -.11E+01 SK= 0.17E-01
 bond charge predicted
 prediction of wavefunctions
       N       E                     dE             d eps       ncg     rms          rms(c)
DAV:   1    -0.817290420061E+02   -0.52646E-01   -0.37788E-02   100   0.147E+00    0.186E-02
RMM:   2    -0.817290952174E+02   -0.53211E-04   -0.52788E-04    50   0.166E-01    0.863E-03
RMM:   3    -0.817291023996E+02   -0.71822E-05   -0.42283E-05    44   0.482E-02 
   3992 T=   570. E= -.81889840E+02 F= -.81729077E+02 E0= -.81729077E+02  EK= 0.88339E+00 SP= -.11E+01 SK= 0.21E-01
 bond charge predicted
 prediction of wavefunctions
       N       E                     dE             d eps       ncg     rms          rms(c)
DAV:   1    -0.817703825045E+02   -0.41287E-01   -0.38044E-02    75   0.147E+00    0.296E-02
RMM:   2    -0.817704762880E+02   -0.93784E-04   -0.97694E-04    50   0.234E-01    0.191E-02
RMM:   3    -0.817704901180E+02   -0.13830E-04   -0.88377E-05    49   0.712E-02    0.144E-02
RMM:   4    -0.817705047293E+02   -0.14611E-04   -0.20992E-05    32   0.304E-02    0.517E-03
RMM:   5    -0.817705145396E+02   -0.98104E-05   -0.50574E-06    32   0.140E-02 
   3993 T=   573. E= -.81890593E+02 F= -.81770479E+02 E0= -.81770479E+02  EK= 0.88933E+00 SP= -.10E+01 SK= 0.26E-01
 bond charge predicted
 prediction of wavefunctions
       N       E                     dE             d eps       ncg     rms          rms(c)
DAV:   1    -0.817862788744E+02   -0.15774E-01   -0.35651E-02    75   0.144E+00    0.316E-02
RMM:   2    -0.817863769428E+02   -0.98068E-04   -0.10724E-03    50   0.238E-01    0.137E-02
RMM:   3    -0.817863876575E+02   -0.10715E-04   -0.87922E-05    50   0.704E-02    0.102E-02
RMM:   4    -0.817863942779E+02   -0.66204E-05   -0.19891E-05    32   0.288E-02 
   3994 T=   559. E= -.81890270E+02 F= -.81786350E+02 E0= -.81786350E+02  EK= 0.86770E+00 SP= -.10E+01 SK= 0.31E-01
 bond charge predicted
 prediction of wavefunctions
       N       E                     dE             d eps       ncg     rms          rms(c)
DAV:   1    -0.817772765474E+02    0.91111E-02   -0.31826E-02   100   0.137E+00    0.366E-02
RMM:   2    -0.817773669324E+02   -0.90385E-04   -0.11152E-03    50   0.248E-01    0.194E-02
RMM:   3    -0.817773776644E+02   -0.10732E-04   -0.95326E-05    50   0.724E-02    0.132E-02
RMM:   4    -0.817773856006E+02   -0.79362E-05   -0.23399E-05    34   0.300E-02 
   3995 T=   529. E= -.81889102E+02 F= -.81777336E+02 E0= -.81777336E+02  EK= 0.82092E+00 SP= -.97E+00 SK= 0.34E-01
 bond charge predicted
 prediction of wavefunctions
       N       E                     dE             d eps       ncg     rms          rms(c)
DAV:   1    -0.817573288149E+02    0.20049E-01   -0.27875E-02    75   0.130E+00    0.292E-02
RMM:   2    -0.817574362323E+02   -0.10742E-03   -0.11255E-03    50   0.243E-01    0.166E-02
RMM:   3    -0.817574490061E+02   -0.12774E-04   -0.95603E-05    49   0.747E-02    0.124E-02
RMM:   4    -0.817574594305E+02   -0.10424E-04   -0.25388E-05    35   0.329E-02    0.489E-03
RMM:   5    -0.817574663567E+02   -0.69262E-05   -0.54447E-06    32   0.145E-02 
   3996 T=   493. E= -.81887776E+02 F= -.81757413E+02 E0= -.81757413E+02  EK= 0.76461E+00 SP= -.93E+00 SK= 0.36E-01
 bond charge predicted
 prediction of wavefunctions
       N       E                     dE             d eps       ncg     rms          rms(c)
DAV:   1    -0.817443997358E+02    0.13060E-01   -0.26813E-02   100   0.126E+00    0.281E-02
RMM:   2    -0.817444765578E+02   -0.76822E-04   -0.83561E-04    50   0.206E-01    0.162E-02
RMM:   3    -0.817444853047E+02   -0.87469E-05   -0.74429E-05    49   0.639E-02 
   3997 T=   462. E= -.81887001E+02 F= -.81744426E+02 E0= -.81744426E+02  EK= 0.71738E+00 SP= -.89E+00 SK= 0.34E-01
 bond charge predicted
 prediction of wavefunctions
       N       E                     dE             d eps       ncg     rms          rms(c)
DAV:   1    -0.817503112350E+02   -0.58347E-02   -0.27140E-02    75   0.124E+00    0.315E-02
RMM:   2    -0.817504026484E+02   -0.91413E-04   -0.94620E-04    50   0.231E-01    0.227E-02
RMM:   3    -0.817504172418E+02   -0.14593E-04   -0.94778E-05    49   0.730E-02    0.156E-02
RMM:   4    -0.817504300762E+02   -0.12834E-04   -0.23839E-05    34   0.326E-02    0.605E-03
RMM:   5    -0.817504389476E+02   -0.88715E-05   -0.58094E-06    32   0.148E-02 
   3998 T=   446. E= -.81886927E+02 F= -.81750368E+02 E0= -.81750368E+02  EK= 0.69132E+00 SP= -.86E+00 SK= 0.31E-01
 bond charge predicted
 prediction of wavefunctions
       N       E                     dE             d eps       ncg     rms          rms(c)
DAV:   1    -0.817769486744E+02   -0.26519E-01   -0.29495E-02    75   0.123E+00    0.269E-02
RMM:   2    -0.817770153735E+02   -0.66699E-04   -0.71078E-04    50   0.188E-01    0.131E-02
RMM:   3    -0.817770254018E+02   -0.10028E-04   -0.74021E-05    50   0.621E-02    0.727E-03
RMM:   4    -0.817770315760E+02   -0.61742E-05   -0.18488E-05    33   0.262E-02 
   3999 T=   443. E= -.81887349E+02 F= -.81776947E+02 E0= -.81776947E+02  EK= 0.68773E+00 SP= -.83E+00 SK= 0.27E-01
 bond charge predicted
 prediction of wavefunctions
       N       E                     dE             d eps       ncg     rms          rms(c)
DAV:   1    -0.818169773598E+02   -0.39952E-01   -0.31301E-02    75   0.122E+00    0.282E-02
RMM:   2    -0.818170391460E+02   -0.61786E-04   -0.70111E-04    50   0.199E-01    0.154E-02
RMM:   3    -0.818170493272E+02   -0.10181E-04   -0.74884E-05    50   0.650E-02    0.973E-03
RMM:   4    -0.818170558121E+02   -0.64849E-05   -0.16940E-05    32   0.276E-02 
   4000 T=   451. E= -.81887909E+02 F= -.81816963E+02 E0= -.81816963E+02  EK= 0.69901E+00 SP= -.79E+00 SK= 0.24E-01
 bond charge predicted
 prediction of wavefunctions
       N       E                     dE             d eps       ncg     rms          rms(c)
DAV:   1    -0.818598923017E+02   -0.42843E-01   -0.32916E-02   100   0.122E+00    0.247E-02
RMM:   2    -0.818599553823E+02   -0.63081E-04   -0.67065E-04    50   0.195E-01    0.135E-02
RMM:   3    -0.818599652842E+02   -0.99019E-05   -0.65407E-05    49   0.603E-02 
   4001 T=   461. E= -.81888253E+02 F= -.81859873E+02 E0= -.81859873E+02  EK= 0.71439E+00 SP= -.76E+00 SK= 0.22E-01
 bond charge predicted
 prediction of wavefunctions
       N       E                     dE             d eps       ncg     rms          rms(c)
DAV:   1    -0.818980072055E+02   -0.38052E-01   -0.32953E-02   100   0.121E+00    0.302E-02
RMM:   2    -0.818980800615E+02   -0.72856E-04   -0.74725E-04    50   0.209E-01    0.231E-02
RMM:   3    -0.818980912353E+02   -0.11174E-04   -0.69447E-05    49   0.643E-02    0.173E-02
RMM:   4    -0.818981046969E+02   -0.13462E-04   -0.19635E-05    32   0.296E-02    0.526E-03
RMM:   5    -0.818981124096E+02   -0.77127E-05   -0.42716E-06    32   0.129E-02 
   4002 T=   468. E= -.81888209E+02 F= -.81898027E+02 E0= -.81898027E+02  EK= 0.72616E+00 SP= -.74E+00 SK= 0.20E-01
 bond charge predicted
 prediction of wavefunctions
       N       E                     dE             d eps       ncg     rms          rms(c)
DAV:   1    -0.819295798940E+02   -0.31475E-01   -0.31397E-02    75   0.116E+00    0.278E-02
RMM:   2    -0.819296374844E+02   -0.57590E-04   -0.62924E-04    50   0.178E-01    0.116E-02
RMM:   3    -0.819296454780E+02   -0.79937E-05   -0.58234E-05    47   0.548E-02 
   4003 T=   472. E= -.81887940E+02 F= -.81929571E+02 E0= -.81929571E+02  EK= 0.73228E+00 SP= -.71E+00 SK= 0.18E-01
 bond charge predicted
 prediction of wavefunctions
       N       E                     dE             d eps       ncg     rms          rms(c)
DAV:   1    -0.819568020170E+02   -0.27165E-01   -0.28690E-02   100   0.114E+00    0.232E-02
RMM:   2    -0.819568683043E+02   -0.66287E-04   -0.63212E-04    50   0.189E-01    0.197E-02
RMM:   3    -0.819568774850E+02   -0.91807E-05   -0.57173E-05    46   0.559E-02 
   4004 T=   474. E= -.81887693E+02 F= -.81956812E+02 E0= -.81956812E+02  EK= 0.73487E+00 SP= -.68E+00 SK= 0.17E-01
 bond charge predicted
 prediction of wavefunctions
       N       E                     dE             d eps       ncg     rms          rms(c)
DAV:   1    -0.819825478707E+02   -0.25680E-01   -0.25908E-02    75   0.111E+00    0.202E-02
RMM:   2    -0.819825981605E+02   -0.50290E-04   -0.46577E-04    50   0.159E-01    0.132E-02
RMM:   3    -0.819826114678E+02   -0.13307E-04   -0.48968E-05    47   0.508E-02    0.881E-03
RMM:   4    -0.819826274283E+02   -0.15960E-04   -0.12310E-05    32   0.228E-02    0.364E-03
RMM:   5    -0.819826395160E+02   -0.12088E-04   -0.28634E-06    32   0.104E-02    0.829E-04
RMM:   6    -0.819826474108E+02   -0.78947E-05   -0.85810E-07    27   0.604E-03 
   4005 T=   475. E= -.81887647E+02 F= -.81982587E+02 E0= -.81982587E+02  EK= 0.73660E+00 SP= -.66E+00 SK= 0.16E-01
 bond charge predicted
 prediction of wavefunctions
       N       E                     dE             d eps       ncg     rms          rms(c)
DAV:   1    -0.820069134072E+02   -0.24274E-01   -0.24399E-02    75   0.115E+00    0.173E-02
RMM:   2    -0.820069636094E+02   -0.50202E-04   -0.43877E-04    50   0.143E-01    0.839E-03
RMM:   3    -0.820069736686E+02   -0.10059E-04   -0.39984E-05    43   0.443E-02    0.535E-03
RMM:   4    -0.820069838016E+02   -0.10133E-04   -0.98269E-06    32   0.187E-02    0.184E-03
RMM:   5    -0.820069905109E+02   -0.67092E-05   -0.24167E-06    32   0.911E-03 
   4006 T=   475. E= -.81887769E+02 F= -.82006935E+02 E0= -.82006935E+02  EK= 0.73749E+00 SP= -.63E+00 SK= 0.15E-01
 bond charge predicted
 prediction of wavefunctions
       N       E                     dE             d eps       ncg     rms          rms(c)
DAV:   1    -0.820268384878E+02   -0.19855E-01   -0.23377E-02    50   0.120E+00    0.151E-02
RMM:   2    -0.820268955048E+02   -0.57017E-04   -0.47472E-04    50   0.157E-01    0.963E-03
RMM:   3    -0.820269081744E+02   -0.12670E-04   -0.46032E-05    43   0.476E-02    0.801E-03
RMM:   4    -0.820269238518E+02   -0.15677E-04   -0.10610E-05    32   0.194E-02    0.371E-03
RMM:   5    -0.820269402658E+02   -0.16414E-04   -0.30752E-06    32   0.101E-02    0.111E-03
RMM:   6    -0.820269475947E+02   -0.73290E-05   -0.97190E-07    28   0.557E-03 
   4007 T=   474. E= -.81887946E+02 F= -.82026903E+02 E0= -.82026903E+02  EK= 0.73477E+00 SP= -.61E+00 SK= 0.14E-01
 bond charge predicted
 prediction of wavefunctions
       N       E                     dE             d eps       ncg     rms          rms(c)
DAV:   1    -0.820387084475E+02   -0.11768E-01   -0.23274E-02   100   0.124E+00    0.151E-02
RMM:   2    -0.820387454964E+02   -0.37049E-04   -0.38458E-04    50   0.142E-01    0.981E-03
RMM:   3    -0.820387493268E+02   -0.38304E-05   -0.30635E-05    37   0.415E-02 
   4008 T=   467. E= -.81888048E+02 F= -.82038717E+02 E0= -.82038717E+02  EK= 0.72501E+00 SP= -.59E+00 SK= 0.13E-01
 bond charge predicted
 prediction of wavefunctions
       N       E                     dE             d eps       ncg     rms          rms(c)
DAV:   1    -0.820407645441E+02   -0.20190E-02   -0.22876E-02    75   0.126E+00    0.214E-02
RMM:   2    -0.820408202989E+02   -0.55755E-04   -0.55234E-04    50   0.174E-01    0.148E-02
RMM:   3    -0.820408319571E+02   -0.11658E-04   -0.58681E-05    48   0.576E-02    0.102E-02
RMM:   4    -0.820408435412E+02   -0.11584E-04   -0.14442E-05    33   0.247E-02    0.403E-03
RMM:   5    -0.820408523194E+02   -0.87782E-05   -0.35671E-06    32   0.111E-02 
   4009 T=   456. E= -.81887824E+02 F= -.82040830E+02 E0= -.82040830E+02  EK= 0.70735E+00 SP= -.57E+00 SK= 0.11E-01
 bond charge predicted
 prediction of wavefunctions
       N       E                     dE             d eps       ncg     rms          rms(c)
DAV:   1    -0.820364991575E+02    0.43444E-02   -0.22440E-02   100   0.125E+00    0.201E-02
RMM:   2    -0.820365471906E+02   -0.48033E-04   -0.47419E-04    50   0.160E-01    0.111E-02
RMM:   3    -0.820365572277E+02   -0.10037E-04   -0.42704E-05    44   0.488E-02    0.688E-03
RMM:   4    -0.820365673779E+02   -0.10150E-04   -0.10289E-05    32   0.210E-02    0.279E-03
RMM:   5    -0.820365754084E+02   -0.80306E-05   -0.25314E-06    32   0.950E-03 
   4010 T=   442. E= -.81887297E+02 F= -.82036559E+02 E0= -.82036559E+02  EK= 0.68563E+00 SP= -.55E+00 SK= 0.94E-02
 bond charge predicted
 prediction of wavefunctions
       N       E                     dE             d eps       ncg     rms          rms(c)
DAV:   1    -0.820339201326E+02    0.26472E-02   -0.20925E-02    75   0.123E+00    0.234E-02
RMM:   2    -0.820339757477E+02   -0.55615E-04   -0.61944E-04    50   0.184E-01    0.152E-02
RMM:   3    -0.820339825660E+02   -0.68183E-05   -0.62089E-05    47   0.585E-02 
   4011 T=   431. E= -.81886695E+02 F= -.82033969E+02 E0= -.82033969E+02  EK= 0.66806E+00 SP= -.53E+00 SK= 0.72E-02
 bond charge predicted
 prediction of wavefunctions
       N       E                     dE             d eps       ncg     rms          rms(c)
DAV:   1    -0.820425348520E+02   -0.85591E-02   -0.19571E-02   100   0.120E+00    0.281E-02
RMM:   2    -0.820425994173E+02   -0.64565E-04   -0.66182E-04    50   0.197E-01    0.194E-02
RMM:   3    -0.820426147678E+02   -0.15351E-04   -0.75653E-05    49   0.661E-02    0.118E-02
RMM:   4    -0.820426287586E+02   -0.13991E-04   -0.17126E-05    32   0.279E-02    0.418E-03
RMM:   5    -0.820426382579E+02   -0.94993E-05   -0.38974E-06    32   0.123E-02 
   4012 T=   428. E= -.81886352E+02 F= -.82042628E+02 E0= -.82042628E+02  EK= 0.66395E+00 SP= -.51E+00 SK= 0.51E-02
 bond charge predicted
 prediction of wavefunctions
       N       E                     dE             d eps       ncg     rms          rms(c)
DAV:   1    -0.820678569541E+02   -0.25228E-01   -0.18881E-02    75   0.115E+00    0.232E-02
RMM:   2    -0.820679069769E+02   -0.50023E-04   -0.51325E-04    50   0.166E-01    0.977E-03
RMM:   3    -0.820679165295E+02   -0.95526E-05   -0.51427E-05    46   0.525E-02 
   4013 T=   437. E= -.81886631E+02 F= -.82067911E+02 E0= -.82067911E+02  EK= 0.67800E+00 SP= -.50E+00 SK= 0.34E-02
Information: wavefunction orthogonal band   25  0.8983
 bond charge predicted
 prediction of wavefunctions
       N       E                     dE             d eps       ncg     rms          rms(c)
DAV:   1    -0.821055848270E+02   -0.37678E-01   -0.18579E-02    75   0.114E+00    0.222E-02
RMM:   2    -0.821056413772E+02   -0.56550E-04   -0.56869E-04    50   0.184E-01    0.159E-02
RMM:   3    -0.821056514879E+02   -0.10111E-04   -0.61948E-05    48   0.601E-02    0.109E-02
RMM:   4    -0.821056611635E+02   -0.96756E-05   -0.15206E-05    32   0.264E-02 
   4014 T=   455. E= -.81887543E+02 F= -.82105659E+02 E0= -.82105659E+02  EK= 0.70557E+00 SP= -.49E+00 SK= 0.23E-02
 bond charge predicted
 prediction of wavefunctions
       N       E                     dE             d eps       ncg     rms          rms(c)
DAV:   1    -0.821417593726E+02   -0.36108E-01   -0.20657E-02    75   0.116E+00    0.191E-02
RMM:   2    -0.821418098429E+02   -0.50470E-04   -0.49185E-04    50   0.165E-01    0.856E-03
RMM:   3    -0.821418191442E+02   -0.93014E-05   -0.48520E-05    44   0.514E-02 
   4015 T=   472. E= -.81888682E+02 F= -.82141818E+02 E0= -.82141818E+02  EK= 0.73242E+00 SP= -.48E+00 SK= 0.17E-02
 bond charge predicted
 prediction of wavefunctions
       N       E                     dE             d eps       ncg     rms          rms(c)
DAV:   1    -0.821589107197E+02   -0.17101E-01   -0.23507E-02    75   0.120E+00    0.231E-02
RMM:   2    -0.821589950183E+02   -0.84299E-04   -0.80021E-04    50   0.217E-01    0.172E-02
RMM:   3    -0.821590069398E+02   -0.11921E-04   -0.69912E-05    48   0.656E-02    0.148E-02
RMM:   4    -0.821590207696E+02   -0.13830E-04   -0.16482E-05    32   0.279E-02    0.656E-03
RMM:   5    -0.821590338936E+02   -0.13124E-04   -0.45665E-06    32   0.129E-02    0.163E-03
RMM:   6    -0.821590396090E+02   -0.57154E-05   -0.14141E-06    32   0.729E-03 
   4016 T=   478. E= -.81889366E+02 F= -.82159039E+02 E0= -.82159039E+02  EK= 0.74150E+00 SP= -.47E+00 SK= 0.14E-02
 bond charge predicted
 prediction of wavefunctions
       N       E                     dE             d eps       ncg     rms          rms(c)
DAV:   1    -0.821468052199E+02    0.12229E-01   -0.25797E-02    75   0.121E+00    0.276E-02
RMM:   2    -0.821468800508E+02   -0.74831E-04   -0.81286E-04    50   0.211E-01    0.120E-02
RMM:   3    -0.821468871778E+02   -0.71270E-05   -0.57904E-05    48   0.587E-02 
   4017 T=   466. E= -.81889167E+02 F= -.82146886E+02 E0= -.82146886E+02  EK= 0.72287E+00 SP= -.47E+00 SK= 0.11E-02
 bond charge predicted
 prediction of wavefunctions
       N       E                     dE             d eps       ncg     rms          rms(c)
DAV:   1    -0.821083904176E+02    0.38490E-01   -0.26355E-02    75   0.120E+00    0.366E-02
RMM:   2    -0.821084944657E+02   -0.10405E-03   -0.11791E-03    50   0.262E-01    0.230E-02
RMM:   3    -0.821085090011E+02   -0.14535E-04   -0.10566E-04    49   0.784E-02    0.176E-02
RMM:   4    -0.821085216511E+02   -0.12650E-04   -0.26390E-05    34   0.340E-02    0.674E-03
RMM:   5    -0.821085315703E+02   -0.99192E-05   -0.60697E-06    32   0.157E-02 
   4018 T=   439. E= -.81888217E+02 F= -.82108530E+02 E0= -.82108530E+02  EK= 0.68021E+00 SP= -.46E+00 SK= 0.63E-03
 bond charge predicted
 prediction of wavefunctions
       N       E                     dE             d eps       ncg     rms          rms(c)
DAV:   1    -0.820587724132E+02    0.49749E-01   -0.25402E-02    75   0.112E+00    0.279E-02
RMM:   2    -0.820588420563E+02   -0.69643E-04   -0.75486E-04    50   0.197E-01    0.996E-03
RMM:   3    -0.820588509713E+02   -0.89150E-05   -0.59997E-05    48   0.583E-02 
   4019 T=   405. E= -.81887113E+02 F= -.82058851E+02 E0= -.82058851E+02  EK= 0.62869E+00 SP= -.46E+00 SK= 0.11E-03
 bond charge predicted
 prediction of wavefunctions
       N       E                     dE             d eps       ncg     rms          rms(c)
DAV:   1    -0.820156785739E+02    0.43163E-01   -0.21149E-02   100   0.103E+00    0.265E-02
RMM:   2    -0.820157396751E+02   -0.61101E-04   -0.63334E-04    50   0.189E-01    0.178E-02
RMM:   3    -0.820157496085E+02   -0.99335E-05   -0.65207E-05    48   0.596E-02 
   4020 T=   378. E= -.81886449E+02 F= -.82015750E+02 E0= -.82015750E+02  EK= 0.58627E+00 SP= -.46E+00 SK= 0.11E-03
 bond charge predicted
 prediction of wavefunctions
       N       E                     dE             d eps       ncg     rms          rms(c)
DAV:   1    -0.819911230311E+02    0.24617E-01   -0.16011E-02    75   0.958E-01    0.200E-02
RMM:   2    -0.819911781299E+02   -0.55099E-04   -0.51866E-04    50   0.168E-01    0.915E-03
RMM:   3    -0.819911906342E+02   -0.12504E-04   -0.58032E-05    48   0.558E-02    0.818E-03
RMM:   4    -0.819912013707E+02   -0.10737E-04   -0.13300E-05    32   0.246E-02    0.506E-03
RMM:   5    -0.819912139451E+02   -0.12574E-04   -0.40754E-06    32   0.123E-02    0.147E-03
RMM:   6    -0.819912207961E+02   -0.68510E-05   -0.13446E-06    31   0.723E-03 
   4021 T=   364. E= -.81886372E+02 F= -.81991221E+02 E0= -.81991221E+02  EK= 0.56521E+00 SP= -.46E+00 SK= 0.13E-02

===================================================================================
=   BAD TERMINATION OF ONE OF YOUR APPLICATION PROCESSES
=   RANK 1 PID 778427 RUNNING AT hicham-Precision-7920-Tower
=   KILLED BY SIGNAL: 9 (Killed)
=============================================================================