Water-AIMD                              
           1
    20.000000    0.000000    0.000000
     0.000000   20.000000    0.000000
     0.000000    0.000000   20.000000
   C    O    H 
     6     1     6
Direct configuration=     1
   0.41823461  0.51722197  0.50857376
   0.43600576  0.45310049  0.48708249
   0.50342850  0.43626379  0.47915588
   0.55327230  0.48351510  0.49270263
   0.53532129  0.54780974  0.51425679
   0.46787419  0.56455700  0.52215520
   0.62024014  0.46616415  0.48462530
   0.36605814  0.53021430  0.51469589
   0.39756919  0.41648130  0.47657698
   0.51695211  0.38656484  0.46250763
   0.57348648  0.58469892  0.52485996
   0.45409439  0.61417773  0.53878732
   0.65746289  0.49923069  0.49402018
Direct configuration=     2
   0.41827277  0.51705856  0.50860951
   0.43608495  0.45320485  0.48719434
   0.50323887  0.43636947  0.47915277
   0.55349564  0.48334688  0.49257507
   0.53551769  0.54778428  0.51433301
   0.46768460  0.56465153  0.52191419
   0.62012019  0.46630123  0.48464339
   0.36597302  0.52969240  0.51452829
   0.39727829  0.41583271  0.47614848
   0.51746445  0.38660814  0.46289930
   0.57339831  0.58371450  0.52553679
   0.45442559  0.61515347  0.53919194
   0.65710664  0.49880380  0.49462955
Direct configuration=     3
   0.41831092  0.51689715  0.50864526
   0.43616450  0.45330852  0.48730564
   0.50305377  0.43647327  0.47914908
   0.55372556  0.48319073  0.49245152
   0.53570353  0.54775279  0.51440747
   0.46749912  0.56474524  0.52167378
   0.62000494  0.46643445  0.48466020
   0.36585335  0.52918342  0.51436651
   0.39701325  0.41520431  0.47572880
   0.51798693  0.38662682  0.46327989
   0.57338787  0.58280069  0.52623101
   0.45475918  0.61609826  0.53958435
   0.65653328  0.49833513  0.49523041
Direct configuration=     4
   0.41834735  0.51674018  0.50868124
   0.43624046  0.45340610  0.48741445
   0.50287708  0.43657370  0.47914439
   0.55395827  0.48304898  0.49233317
   0.53587361  0.54771145  0.51447874
   0.46732027  0.56484200  0.52143615
   0.61989342  0.46656073  0.48467478
   0.36570373  0.52868986  0.51421151
   0.39681340  0.41464010  0.47533442
   0.51850666  0.38662901  0.46364979
   0.57349149  0.58199879  0.52695403
   0.45510019  0.61695273  0.53994244
   0.65578535  0.49786150  0.49583220
Direct configuration=     5
   0.41838021  0.51659002  0.50871775
   0.43630966  0.45349291  0.48751911
   0.50271258  0.43666936  0.47913829
   0.55418996  0.48292358  0.49222102
   0.53602398  0.54765744  0.51454567
   0.46715047  0.56494489  0.52120307
   0.61978375  0.46667656  0.48468591
   0.36553129  0.52821337  0.51406390
   0.39670924  0.41417563  0.47497954
   0.51901077  0.38662407  0.46400988
   0.57373450  0.58133828  0.52771552
   0.45545078  0.61766870  0.54024755
   0.65491943  0.49742986  0.49645023
Direct configuration=     6
   0.41840765  0.51644879  0.50875513
   0.43636978  0.45356514  0.48761826
   0.50256384  0.43675902  0.47913036
   0.55441689  0.48281602  0.49211583
   0.53615236  0.54758927  0.51460757
   0.46699188  0.56505621  0.52097582
   0.61967347  0.46677811  0.48469207
   0.36534474  0.52775480  0.51392399
   0.39672212  0.41383725  0.47467556
   0.51948710  0.38662144  0.46436135
   0.57412643  0.58083257  0.52852135
   0.45581075  0.61821022  0.54048503
   0.65400163  0.49709422  0.49710556
Direct configuration=     7
   0.41842792  0.51631842  0.50879368
   0.43641936  0.45361985  0.48771092
   0.50243405  0.43684167  0.47912024
   0.55463540  0.48272742  0.49201815
   0.53625827  0.54750692  0.51466439
   0.46684640  0.56517738  0.52075515
   0.61955998  0.46686169  0.48469158
   0.36515354  0.52731460  0.51379191
   0.39686469  0.41364229  0.47443100
   0.51992461  0.38662962  0.46470528
   0.57465905  0.58047797  0.52937186
   0.45617790  0.61855330  0.54064425
   0.65309923  0.49690944  0.49782335
Direct configuration=     8
   0.41843946  0.51620058  0.50883375
   0.43645769  0.45365495  0.48779643
   0.50232612  0.43691664  0.47910764
   0.55484200  0.48265858  0.49192834
   0.53634293  0.54741160  0.51471670
   0.46671570  0.56530909  0.52054126
   0.61944125  0.46692413  0.48468276
   0.36496690  0.52689286  0.51366768
   0.39714173  0.41359974  0.47425160
   0.52031366  0.38665547  0.46504254
   0.57530781  0.58025573  0.53026155
   0.45654850  0.61868482  0.54071847
   0.65226899  0.49692259  0.49862918
Direct configuration=     9
   0.41844090  0.51609674  0.50887565
   0.43648480  0.45366913  0.48787446
   0.50224260  0.43698352  0.47909233
   0.55503321  0.48261013  0.49184663
   0.53640873  0.54730545  0.51476565
   0.46660128  0.56545124  0.52033396
   0.61931670  0.46696354  0.48466437
   0.36479324  0.52648988  0.51355141
   0.39755060  0.41371065  0.47414047
   0.52064608  0.38670356  0.46537338
   0.57603583  0.58013647  0.53117940
   0.45691740  0.61860171  0.54070457
   0.65154492  0.49716180  0.49954297
Direct configuration=    10
   0.41843115  0.51600825  0.50891962
   0.43650143  0.45366190  0.48794494
   0.50218574  0.43704216  0.47907419
   0.55520550  0.48258258  0.49177318
   0.53645870  0.54719112  0.51481274
   0.46650454  0.56560283  0.52013273
   0.61918779  0.46697968  0.48463587
   0.36463962  0.52610643  0.51344338
   0.39808105  0.41396805  0.47409808
   0.52091528  0.38677582  0.46569729
   0.57679912  0.58008525  0.53211025
   0.45727804  0.61831090  0.54060314
   0.65093019  0.49762795  0.50057281
Direct configuration=    11
   0.41840946  0.51593630  0.50896579
   0.43650911  0.45363364  0.48800810
   0.50215746  0.43709271  0.47905318
   0.55535529  0.48257639  0.49170809
   0.53649599  0.54707148  0.51485971
   0.46642692  0.56576186  0.51993672
   0.61905799  0.46697417  0.48459777
   0.36451129  0.52574400  0.51334416
   0.39871446  0.41435618  0.47412194
   0.52111626  0.38687119  0.46601277
   0.57755149  0.58006612  0.53303640
   0.45762231  0.61783011  0.54041888
   0.65039739  0.49829274  0.50171149
Direct configuration=    12
   0.41837543  0.51588195  0.50901419
   0.43651022  0.45358575  0.48806449
   0.50215936  0.43713555  0.47902936
   0.55547901  0.48259189  0.49165148
   0.53652357  0.54694937  0.51490832
   0.46636981  0.56592514  0.51974481
   0.61893221  0.46695006  0.48455145
   0.36441138  0.52540495  0.51325461
   0.39942278  0.41484921  0.47420608
   0.52124579  0.38698555  0.46631728
   0.57824875  0.58004549  0.53393942
   0.45794035  0.61718954  0.54016145
   0.64989797  0.49910408  0.50293647
Direct configuration=    13
   0.41832910  0.51584602  0.50906469
   0.43650809  0.45352076  0.48811501
   0.50219258  0.43717137  0.47900291
   0.55557323  0.48262931  0.49160337
   0.53654390  0.54682740  0.51496026
   0.46633464  0.56608819  0.51955552
   0.61881592  0.46691127  0.48449906
   0.36434066  0.52509253  0.51317589
   0.40016773  0.41541023  0.47434063
   0.52130263  0.38711168  0.46660730
   0.57885106  0.57999396  0.53480118
   0.45822056  0.61643326  0.53984608
   0.64937473  0.49999659  0.50421447
Direct configuration=    14
   0.41827086  0.51582914  0.50911703
   0.43650700  0.45344234  0.48816099
   0.50225778  0.43720112  0.47897405
   0.55563474  0.48268863  0.49156373
   0.53655889  0.54670791  0.51501710
   0.46632286  0.56624523  0.51936692
   0.61871438  0.46686199  0.48444307
   0.36429736  0.52481074  0.51310944
   0.40090081  0.41599110  0.47451160
   0.52128755  0.38723947  0.46687848
   0.57932493  0.57988760  0.53560517
   0.45844965  0.61561973  0.53949403
   0.64877358  0.50090191  0.50550690
Direct configuration=    15
   0.41820154  0.51583167  0.50917087
   0.43651202  0.45335517  0.48820409
   0.50235514  0.43722591  0.47894311
   0.55566083  0.48276956  0.49153237
   0.53656985  0.54659289  0.51508025
   0.46633591  0.56638945  0.51917660
   0.61863198  0.46680615  0.48438605
   0.36427724  0.52456416  0.51305690
   0.40156543  0.41653437  0.47470152
   0.52120342  0.38735645  0.46712594
   0.57964377  0.57970811  0.53633751
   0.45861304  0.61482008  0.53913201
   0.64805071  0.50175703  0.50677544
Direct configuration=    16
   0.41812224  0.51585375  0.50922573
   0.43652865  0.45326450  0.48824628
   0.50248442  0.43724707  0.47891040
   0.55564921  0.48287158  0.49150894
   0.53657749  0.54648390  0.51515100
   0.46637518  0.56651334  0.51898170
   0.61857204  0.46674726  0.48433043
   0.36427390  0.52435765  0.51302004
   0.40210144  0.41697796  0.47489111
   0.52105479  0.38744856  0.46734458
   0.57978789  0.57944245  0.53698744
   0.45869558  0.61411314  0.53879034
   0.64717493  0.50250816  0.50798570
Direct configuration=    17
   0.41803426  0.51589536  0.50928109
   0.43656229  0.45317542  0.48828954
   0.50264519  0.43726595  0.47887623
   0.55559803  0.48299397  0.49149292
   0.53658193  0.54638218  0.51523052
   0.46644204  0.56660954  0.51877920
   0.61853678  0.46668820  0.48427832
   0.36427915  0.52419641  0.51300075
   0.40245188  0.41726233  0.47506205
   0.52084745  0.38750098  0.46752928
   0.57974413  0.57908285  0.53754754
   0.45868254  0.61357740  0.53849952
   0.64612773  0.50311254  0.50910914
Direct configuration=    18
   0.41793901  0.51595630  0.50933632
   0.43661742  0.45309210  0.48833561
   0.50283684  0.43728391  0.47884080
   0.55550576  0.48313577  0.49148358
   0.53658275  0.54628860  0.51531993
   0.46653773  0.56667171  0.51856630
   0.61852739  0.46663140  0.48423167
   0.36428387  0.52408580  0.51300096
   0.40257222  0.41734030  0.47520065
   0.52058783  0.38749947  0.46767512
   0.57950535  0.57862637  0.53801371
   0.45856128  0.61327925  0.53828531
   0.64490170  0.50353742  0.51012347
Direct configuration=    19
   0.41783796  0.51603632  0.50939075
   0.43669690  0.45301702  0.48838560
   0.50305860  0.43730201  0.47880423
   0.55537121  0.48329576  0.49148001
   0.53657891  0.54620376  0.51542015
   0.46666319  0.56669554  0.51834097
   0.61854425  0.46657876  0.48419210
   0.36427848  0.52403153  0.51302271
   0.40243827  0.41718542  0.47530116
   0.52028262  0.38743139  0.46777746
   0.57907075  0.57807570  0.53838517
   0.45832302  0.61326153  0.53816363
   0.64350017  0.50375964  0.51101263
Direct configuration=    20
   0.41773270  0.51613503  0.50944353
   0.43680138  0.45295051  0.48843987
   0.50330943  0.43732094  0.47876654
   0.55519350  0.48347231  0.49148117
   0.53656873  0.54612802  0.51553184
   0.46681874  0.56667950  0.51810254
   0.61858697  0.46653173  0.48416099
   0.36425392  0.52403954  0.51306800
   0.40205199  0.41679799  0.47536782
   0.51993853  0.38728735  0.46783209
   0.57844718  0.57744043  0.53866482
   0.45796509  0.61353421  0.53813643
   0.64193803  0.50376552  0.51176664
Direct configuration=    21
   0.41762493  0.51625172  0.50949361
   0.43692911  0.45289090  0.48849792
   0.50358759  0.43734084  0.47872769
   0.55497258  0.48366310  0.49148575
   0.53654978  0.54606149  0.51565510
   0.46700367  0.56662517  0.51785208
   0.61865428  0.46649132  0.48413937
   0.36420259  0.52411565  0.51313861
   0.40144263  0.41620578  0.47541440
   0.51956250  0.38706301  0.46783568
   0.57765210  0.57673928  0.53886042
   0.45749293  0.61407093  0.53819027
   0.64024411  0.50355263  0.51238300
Direct configuration=    22
   0.41751664  0.51638520  0.50953974
   0.43707616  0.45283504  0.48855859
   0.50389020  0.43736115  0.47868753
   0.55470956  0.48386483  0.49149220
   0.53651877  0.54600386  0.51578919
   0.46721592  0.56653700  0.51759250
   0.61874381  0.46645789  0.48412777
   0.36411952  0.52426492  0.51323580
   0.40066270  0.41545931  0.47546166
   0.51916211  0.38676088  0.46778614
   0.57671722  0.57600242  0.53898613
   0.45692109  0.61481305  0.53829831
   0.63846392  0.50313358  0.51286948
Direct configuration=    23
   0.41740999  0.51653356  0.50958040
   0.43723692  0.45277915  0.48862029
   0.50421293  0.43738051  0.47864593
   0.55440723  0.48407321  0.49149873
   0.53647164  0.54595433  0.51593227
   0.46745176  0.56642166  0.51732836
   0.61885197  0.46643096  0.48412587
   0.36400349  0.52449074  0.51335993
   0.39978055  0.41462383  0.47553336
   0.51874576  0.38639163  0.46768328
   0.57569152  0.57527305  0.53906414
   0.45627290  0.61567945  0.53842490
   0.63666041  0.50254072  0.51324800
Direct configuration=    24
   0.41730722  0.51669415  0.50961403
   0.43740488  0.45271960  0.48868139
   0.50454995  0.43739677  0.47860262
   0.55407021  0.48428314  0.49150340
   0.53640379  0.54591148  0.51608140
   0.46770588  0.56628706  0.51706518
   0.61897402  0.46640897  0.48413231
   0.36385775  0.52479408  0.51351022
   0.39887094  0.41376952  0.47565225
   0.51832279  0.38597410  0.46752912
   0.57464108  0.57460609  0.53912518
   0.45557822  0.61657954  0.53853160
   0.63491084  0.50182857  0.51355837
Direct configuration=    25
   0.41721051  0.51686381  0.50963906
   0.43757348  0.45265350  0.48874045
   0.50489431  0.43740717  0.47855731
   0.55370467  0.48448926  0.49150422
   0.53631047  0.54587331  0.51623282
   0.46797182  0.56614138  0.51680869
   0.61910445  0.46638934  0.48414454
   0.36369012  0.52517318  0.51368473
   0.39800614  0.41296280  0.47583719
   0.51790316  0.38553359  0.46732788
   0.57364344  0.57406316  0.53920663
   0.45487019  0.61742565  0.53858252
   0.63329910  0.50107156  0.51385850
Direct configuration=    26
   0.41712170  0.51703915  0.50965405
   0.43773674  0.45257894  0.48879647
   0.50523867  0.43740859  0.47850959
   0.55331778  0.48468642  0.49149929
   0.53618746  0.54583765  0.51638258
   0.46824271  0.56599214  0.51656405
   0.61923769  0.46636883  0.48415918
   0.36351223  0.52562389  0.51388061
   0.39724897  0.41225981  0.47610179
   0.51749699  0.38509872  0.46708528
   0.57277700  0.57370445  0.53934760
   0.45418137  0.61814261  0.53854802
   0.63190427  0.50035376  0.51421899
Direct configuration=    27
   0.41704220  0.51721698  0.50965778
   0.43788976  0.45249496  0.48884894
   0.50557605  0.43739781  0.47845898
   0.55291683  0.48487037  0.49148693
   0.53603188  0.54580281  0.51652739
   0.46851180  0.56584569  0.51633529
   0.61936889  0.46634440  0.48417279
   0.36333825  0.52614058  0.51409449
   0.39664913  0.41170327  0.47645449
   0.51711396  0.38469797  0.46680765
   0.57210682  0.57357829  0.53958122
   0.45354094  0.61867218  0.53840602
   0.63078964  0.49975209  0.51471017
Direct configuration=    28
   0.41697302  0.51739444  0.50964916
   0.43802888  0.45240140  0.48889781
   0.50590010  0.43737171  0.47840485
   0.55250888  0.48503797  0.49146583
   0.53584303  0.54576824  0.51666544
   0.46877289  0.56570700  0.51612524
   0.61949443  0.46631435  0.48418297
   0.36318338  0.52671702  0.51432286
   0.39624272  0.41132254  0.47689943
   0.51676321  0.38435681  0.46650100
   0.57167227  0.57371202  0.53992672
   0.45297322  0.61897366  0.53814171
   0.62999525  0.49931690  0.51538448
Direct configuration=    29
   0.41691495  0.51756905  0.50962723
   0.43815153  0.45229872  0.48894347
   0.50620515  0.43732740  0.47834653
   0.55210064  0.48518704  0.49143501
   0.53562285  0.54573508  0.51679669
   0.46902025  0.56557987  0.51593568
   0.61961212  0.46627916  0.48418924
   0.36306273  0.52734683  0.51456226
   0.39605375  0.41113526  0.47743747
   0.51645344  0.38409597  0.46617047
   0.57148021  0.57410683  0.54038393
   0.45249762  0.61902166  0.53774650
   0.62953659  0.49905851  0.51626114
Direct configuration=    30
   0.41686871  0.51773857  0.50959111
   0.43825600  0.45218801  0.48898658
   0.50648596  0.43726238  0.47828334
   0.55169874  0.48531624  0.49139394
   0.53537599  0.54570621  0.51692284
   0.46924847  0.56546708  0.51576766
   0.61972088  0.46624158  0.48419344
   0.36299038  0.52802340  0.51480918
   0.39609581  0.41114912  0.47806657
   0.51619333  0.38393047  0.46582011
   0.57150597  0.57473786  0.54093262
   0.45212928  0.61880391  0.53721715
   0.62940821  0.49894606  0.51732019
Direct configuration=    31
   0.41683507  0.51790073  0.50953996
   0.43834128  0.45207103  0.48902796
   0.50673755  0.43717477  0.47821475
   0.55131000  0.48542486  0.49134253
   0.53510941  0.54568576  0.51704681
   0.46945226  0.56537061  0.51562178
   0.61982039  0.46620599  0.48419924
   0.36297850  0.52873952  0.51506003
   0.39637230  0.41136231  0.47878173
   0.51599165  0.38386905  0.46545297
   0.57170089  0.57555916  0.54153623
   0.45187931  0.61832052  0.53655570
   0.62958946  0.49891883  0.51850814
Direct configuration=    32
   0.41681488  0.51805324  0.50947311
   0.43840715  0.45195028  0.48906859
   0.50695504  0.43706343  0.47814041
   0.55094154  0.48551265  0.49128116
   0.53483159  0.54567839  0.51717194
   0.46962645  0.56529166  0.51549824
   0.61991068  0.46617755  0.48421137
   0.36303667  0.52948693  0.51531095
   0.39687539  0.41176252  0.47957448
   0.51585731  0.38391321  0.46507108
   0.57200348  0.57651183  0.54214908
   0.45175420  0.61758533  0.53577024
   0.63004965  0.49890284  0.51975077
Direct configuration=    33
   0.41680909  0.51819369  0.50939007
   0.43845434  0.45182923  0.48910955
   0.50713382  0.43692832  0.47806031
   0.55060054  0.48557983  0.49121073
   0.53455178  0.54568848  0.51730136
   0.46976634  0.56523040  0.51539680
   0.61999192  0.46616102  0.48423457
   0.36317083  0.53025616  0.51555790
   0.39758348  0.41232493  0.48043239
   0.51579876  0.38405681  0.46467564
   0.57234934  0.57753189  0.54272332
   0.45175465  0.61662840  0.53487584
   0.63075177  0.49882633  0.52096763
Direct configuration=    34
   0.41681865  0.51831969  0.50929065
   0.43848480  0.45171232  0.48915201
   0.50726987  0.43677053  0.47797470
   0.55029389  0.48562705  0.49113258
   0.53427913  0.54571948  0.51743753
   0.46986799  0.56518561  0.51531661
   0.62006429  0.46616045  0.48427304
   0.36338288  0.53103670  0.51579680
   0.39845850  0.41300980  0.48133913
   0.51582367  0.38428560  0.46426663
   0.57267943  0.57855767  0.54321505
   0.45187354  0.61549940  0.53389561
   0.63165493  0.49862899  0.52208272
Direct configuration=    35
   0.41684445  0.51842898  0.50917490
   0.43850196  0.45160511  0.48919724
   0.50736000  0.43659240  0.47788421
   0.55002775  0.48565539  0.49104844
   0.53402214  0.54577358  0.51758197
   0.46992879  0.56515435  0.51525608
   0.62012804  0.46617860  0.48432993
   0.36367021  0.53181744  0.51602373
   0.39944400  0.41376081  0.48227507
   0.51593818  0.38457800  0.46384297
   0.57294430  0.57953435  0.54358777
   0.45209439  0.61426990  0.53286086
   0.63271647  0.49826701  0.52303203
Direct configuration=    36
   0.41688724  0.51851957  0.50904316
   0.43851073  0.45151411  0.48924647
   0.50740216  0.43639736  0.47778975
   0.54980714  0.48566629  0.49096031
   0.53378814  0.54585155  0.51773529
   0.46994771  0.56513172  0.51521281
   0.62018343  0.46621705  0.48440721
   0.36402598  0.53258748  0.51623522
   0.40046568  0.41450547  0.48321877
   0.51614656  0.38490645  0.46340242
   0.57310608  0.58041683  0.54381423
   0.45239024  0.61303425  0.53181046
   0.63389411  0.49771378  0.52376718
Direct configuration=    37
   0.41694756  0.51858994  0.50889600
   0.43851728  0.45144643  0.48930084
   0.50739556  0.43618964  0.47769243
   0.54963560  0.48566148  0.49087034
   0.53358302  0.54595291  0.51789721
   0.46992559  0.56511085  0.51518368
   0.62023074  0.46627619  0.48450571
   0.36443973  0.53333665  0.51642838
   0.40143564  0.41515897  0.48414916
   0.51645098  0.38524020  0.46294179
   0.57313872  0.58117107  0.54387674
   0.45272430  0.61190609  0.53078829
   0.63514816  0.49695872  0.52425695
Direct configuration=    38
   0.41702576  0.51863901  0.50873406
   0.43852822  0.45140907  0.48936127
   0.50734061  0.43597380  0.47759338
   0.54951523  0.48564283  0.49078067
   0.53341103  0.54607618  0.51806688
   0.46986478  0.56508361  0.51516518
   0.62027028  0.46635541  0.48462520
   0.36489852  0.53405611  0.51660104
   0.40226180  0.41563281  0.48504857
   0.51685158  0.38554866  0.46245732
   0.57302723  0.58177433  0.54376639
   0.45305329  0.61100952  0.52983894
   0.63644368  0.49600510  0.52448747
Direct configuration=    39
   0.41712195  0.51866621  0.50855800
   0.43854948  0.45140781  0.48942824
   0.50723877  0.43575427  0.47749364
   0.54944681  0.48561227  0.49069344
   0.53327482  0.54621910  0.51824297
   0.46976861  0.56504192  0.51515394
   0.62030227  0.46645328  0.48476449
   0.36538801  0.53473837  0.51675156
   0.40286250  0.41584879  0.48590517
   0.51734636  0.38580508  0.46194554
   0.57276658  0.58221453  0.54348180
   0.45333397  0.61046239  0.52900134
   0.63775234  0.49486799  0.52446170
Direct configuration=    40
   0.41723599  0.51867139  0.50836850
   0.43858477  0.45144586  0.48950173
   0.50709247  0.43553509  0.47739409
   0.54943003  0.48557167  0.49061068
   0.53317565  0.54637886  0.51842377
   0.46964049  0.56497965  0.51514739
   0.62032671  0.46656761  0.48492144
   0.36589349  0.53537686  0.51687867
   0.40318296  0.41575523  0.48671378
   0.51793086  0.38598980  0.46140441
   0.57236086  0.58248938  0.54302817
   0.45353211  0.61035361  0.52830198
   0.63905360  0.49357305  0.52419907
Direct configuration=    41
   0.41736727  0.51865480  0.50816645
   0.43863446  0.45152277  0.48958117
   0.50690514  0.43531976  0.47729542
   0.54946384  0.48552285  0.49053448
   0.53311352  0.54655191  0.51860696
   0.46948328  0.56489473  0.51514437
   0.62034321  0.46669547  0.48509281
   0.36640015  0.53596499  0.51698118
   0.40320817  0.41534064  0.48747470
   0.51859723  0.38609272  0.46083486
   0.57182354  0.58260594  0.54241714
   0.45363072  0.61072072  0.52775000
   0.64033496  0.49215669  0.52373548
Direct configuration=    42
   0.41751443  0.51861711  0.50795324
   0.43869525  0.45163392  0.48966550
   0.50668149  0.43511140  0.47719820
   0.54954640  0.48546763  0.49046701
   0.53308711  0.54673378  0.51878943
   0.46929918  0.56479030  0.51514515
   0.62035088  0.46683306  0.48527397
   0.36689331  0.53649524  0.51705776
   0.40296617  0.41463874  0.48819048
   0.51933277  0.38611465  0.46024229
   0.57117912  0.58258135  0.54166798
   0.45363374  0.61153667  0.52733665
   0.64159217  0.49066702  0.52312458
Direct configuration=    43
   0.41767512  0.51855955  0.50773101
   0.43876090  0.45177098  0.48975325
   0.50642782  0.43491282  0.47710296
   0.54967485  0.48540790  0.49041053
   0.53309353  0.54691882  0.51896711
   0.46909042  0.56467431  0.51515118
   0.62034828  0.46697573  0.48545886
   0.36735873  0.53695887  0.51710692
   0.40252020  0.41372238  0.48886251
   0.52011862  0.38606731  0.45963748
   0.57046508  0.58244460  0.54080916
   0.45356299  0.61271340  0.52703943
   0.64282915  0.48916277  0.52243698
Direct configuration=    44
   0.41784593  0.51848403  0.50750272
   0.43882367  0.45192325  0.48984275
   0.50615204  0.43472649  0.47701022
   0.54984504  0.48534566  0.49036724
   0.53312803  0.54710023  0.51913512
   0.46886000  0.56455780  0.51516435
   0.62033358  0.46711825  0.48564029
   0.36778331  0.53734646  0.51712709
   0.40195289  0.41268771  0.48948956
   0.52092999  0.38597172  0.45903608
   0.56973254  0.58223764  0.53987866
   0.45344999  0.61412152  0.52682877
   0.64405723  0.48770833  0.52175431
Direct configuration=    45
   0.41802256  0.51839307  0.50727183
   0.43887600  0.45207940  0.48993228
   0.50586309  0.43455437  0.47692037
   0.55005160  0.48528286  0.49033904
   0.53318406  0.54727052  0.51928815
   0.46861226  0.56445241  0.51518642
   0.62030500  0.46725555  0.48581108
   0.36815665  0.53764935  0.51711702
   0.40134883  0.41163551  0.49006788
   0.52173816  0.38585463  0.45845661
   0.56904351  0.58201428  0.53892147
   0.45332687  0.61561862  0.52667484
   0.64529134  0.48636314  0.52115638
Direct configuration=    46
   0.41820038  0.51828965  0.50704178
   0.43891175  0.45222902  0.49002032
   0.50557008  0.43439783  0.47683366
   0.55028833  0.48522130  0.49032737
   0.53325375  0.54742225  0.51942127
   0.46835262  0.56436827  0.51521856
   0.62026144  0.46738362  0.48596546
   0.36847188  0.53786082  0.51707592
   0.40078113  0.41065494  0.49059299
   0.52251408  0.38574408  0.45791747
   0.56846437  0.58183530  0.53798419
   0.45321996  0.61707402  0.52655196
   0.64654287  0.48517027  0.52070420
Direct configuration=    47
   0.41837499  0.51817685  0.50681552
   0.43892676  0.45236359  0.49010561
   0.50528122  0.43425751  0.47675014
   0.55054887  0.48516241  0.49033309
   0.53332903  0.54754901  0.51953052
   0.46808692  0.56431292  0.51526136
   0.62020316  0.46750008  0.48610012
   0.36872616  0.53797674  0.51700340
   0.40030454  0.40981466  0.49106134
   0.52323170  0.38566522  0.45743430
   0.56805654  0.58175990  0.53710804
   0.45314709  0.61838399  0.52644038
   0.64781076  0.48414905  0.52042596
Direct configuration=    48
   0.41854259  0.51805756  0.50659522
   0.43891879  0.45247688  0.49018724
   0.50500325  0.43413354  0.47666968
   0.55082733  0.48510723  0.49035663
   0.53340279  0.54764628  0.51961342
   0.46782070  0.56429102  0.51531490
   0.62013197  0.46760423  0.48621461
   0.36891988  0.53799544  0.51689938
   0.39995426  0.40916044  0.49147098
   0.52387015  0.38563750  0.45701854
   0.56786637  0.58183576  0.53632278
   0.45311767  0.61947647  0.52632648
   0.64907597  0.48329589  0.52031399
Direct configuration=    49
   0.41870016  0.51793431  0.50638224
   0.43888719  0.45256473  0.49026459
   0.50474122  0.43402579  0.47659213
   0.55111855  0.48505641  0.49039802
   0.53346999  0.54771201  0.51966913
   0.46755884  0.56430488  0.51537893
   0.62005106  0.46769660  0.48631071
   0.36905575  0.53791708  0.51676389
   0.39974874  0.40871804  0.49182163
   0.52441431  0.38567362  0.45667712
   0.56791682  0.58208975  0.53564283
   0.45313456  0.62030815  0.52620165
   0.65030309  0.48259085  0.52033256
Direct configuration=    50
   0.41884549  0.51780921  0.50617730
   0.43883245  0.45262464  0.49033728
   0.50449870  0.43393406  0.47651733
   0.55141816  0.48501024  0.49045710
   0.53352818  0.54774681  0.51969832
   0.46730534  0.56435504  0.51545302
   0.61996438  0.46777837  0.48639147
   0.36913764  0.53774311  0.51659700
   0.39969346  0.40849743  0.49211428
   0.52485438  0.38577945  0.45641296
   0.56820342  0.58252267  0.53506703
   0.45319602  0.62085841  0.52606127
   0.65144732  0.48200705  0.52043164
Direct configuration=    51
   0.41897699  0.51768410  0.50598069
   0.43875587  0.45265533  0.49040503
   0.50427806  0.43385838  0.47644527
   0.55172248  0.48496878  0.49053361
   0.53357741  0.54775373  0.51970280
   0.46706342  0.56444069  0.51553664
   0.61987603  0.46785080  0.48646023
   0.36916969  0.53747577  0.51639877
   0.39978424  0.40849676  0.49235063
   0.52518514  0.38595473  0.45622564
   0.56869611  0.58311005  0.53458148
   0.45329729  0.62112323  0.52590359
   0.65246303  0.48151789  0.52055993
Direct configuration=    52
   0.41909359  0.51756060  0.50579249
   0.43865936  0.45265651  0.49046765
   0.50408085  0.43379904  0.47637609
   0.55202829  0.48493191  0.49062718
   0.53361970  0.54773752  0.51968503
   0.46683567  0.56456000  0.51562916
   0.61978975  0.46791502  0.48652002
   0.36915571  0.53711793  0.51616929
   0.40000929  0.40870491  0.49253270
   0.52540512  0.38619358  0.45611205
   0.56934612  0.58380821  0.53416446
   0.45343151  0.62111135  0.52572935
   0.65330999  0.48110121  0.52067320
Direct configuration=    53
   0.41919467  0.51744015  0.50561270
   0.43854544  0.45262876  0.49052489
   0.50390793  0.43375671  0.47631014
   0.55233265  0.48489944  0.49073741
   0.53365812  0.54770387  0.51964767
   0.46662418  0.56471022  0.51572984
   0.61970876  0.46797182  0.48657323
   0.36909900  0.53667310  0.51590880
   0.40035004  0.40910252  0.49266260
   0.52551606  0.38648521  0.45606684
   0.57009503  0.58456299  0.53379151
   0.45359013  0.62084235  0.52554135
   0.65395765  0.48074068  0.52073806
Direct configuration=    54
   0.41927996  0.51732406  0.50544130
   0.43841721  0.45257351  0.49057652
   0.50375967  0.43373242  0.47624800
   0.55263279  0.48487108  0.49086382
   0.53369609  0.54765858  0.51959327
   0.46643070  0.56488762  0.51583777
   0.61963551  0.46802168  0.48662151
   0.36900223  0.53614556  0.51561776
   0.40078102  0.40966180  0.49274249
   0.52552267  0.38681441  0.45608275
   0.57088349  0.58531860  0.53343958
   0.45376290  0.62034655  0.52534443
   0.65438696  0.48042577  0.52073342
Direct configuration=    55
   0.41934953  0.51721355  0.50527833
   0.43827845  0.45249320  0.49062224
   0.50363607  0.43372750  0.47619047
   0.55292599  0.48484651  0.49100584
   0.53373672  0.54760706  0.51952407
   0.46625676  0.56508731  0.51595188
   0.61957171  0.46806476  0.48666572
   0.36886757  0.53554050  0.51529695
   0.40126921  0.41034586  0.49277472
   0.52543234  0.38716213  0.45615080
   0.57165755  0.58602418  0.53308933
   0.45393776  0.61966604  0.52514549
   0.65459082  0.48015107  0.52065003
Direct configuration=    56
   0.41940371  0.51710970  0.50512383
   0.43813363  0.45239128  0.49066175
   0.50353668  0.43374353  0.47613850
   0.55320959  0.48482537  0.49116280
   0.53378256  0.54755404  0.51944194
   0.46610377  0.56530319  0.51607085
   0.61951834  0.46810097  0.48670606
   0.36869685  0.53486409  0.51494746
   0.40177381  0.41110836  0.49276183
   0.52525483  0.38750640  0.45626065
   0.57237188  0.58663709  0.53272593
   0.45410062  0.61885571  0.52495359
   0.65457417  0.47991555  0.52048982
Direct configuration=    57
   0.41944310  0.51701351  0.50497786
   0.43798788  0.45227223  0.49069471
   0.50346080  0.43378215  0.47609318
   0.55348107  0.48480724  0.49133397
   0.53383541  0.54750340  0.51934839
   0.46597298  0.56552787  0.51619321
   0.61947559  0.46813000  0.48674207
   0.36849180  0.53412331  0.51457065
   0.40224645  0.41189375  0.49270657
   0.52500182  0.38782351  0.45640112
   0.57299134  0.58712464  0.53233911
   0.45423526  0.61798400  0.52477999
   0.65435387  0.47972218  0.52026553
Direct configuration=    58